
Running prologue...

LAMMPS (10 Dec 2025)
  using 1 OpenMP thread(s) per MPI task
units 		real
dimension	3
boundary	p p p
atom_style	full
variable myid string PE_IFFDfyS0
variable data string PE_Test_System.data
variable target_density equal 1.26 # density in g/cc
log ${myid}.log.lammps
log PE_IFFDfyS0.log.lammps
#--------force-field------------
bond_style class2
angle_style class2
dihedral_style class2
improper_style class2
special_bonds lj/coul 0 0 1
pair_style lj/class2/coul/cut 10.0 # Change to long after polymerization
pair_modify mix sixthpower
#kspace_style pppm 1e-6 # uncomment after polymerization
read_data ${data}
read_data PE_Test_System.data
Reading data file ...
  orthogonal box = (-23.431152 -23.431152 -23.431152) to (23.431152 23.431152 23.431152)
  1 by 2 by 5 MPI processor grid
  reading atoms ...
  3000 atoms
  scanning bonds ...
  4 = max bonds/atom
  scanning angles ...
  6 = max angles/atom
  scanning dihedrals ...
  12 = max dihedrals/atom
  scanning impropers ...
  4 = max impropers/atom
  orthogonal box = (-23.431152 -23.431152 -23.431152) to (23.431152 23.431152 23.431152)
  1 by 2 by 5 MPI processor grid
  reading bonds ...
  2875 bonds
  reading angles ...
  5250 angles
  reading dihedrals ...
  7125 dihedrals
  reading impropers ...
  3250 impropers
Finding 1-2 1-3 1-4 neighbors ...
  special bond factors lj:    0        0        1       
  special bond factors coul:  0        0        1       
     4 = max # of 1-2 neighbors
     6 = max # of 1-3 neighbors
    10 = max # of special neighbors
  special bonds CPU = 0.001 seconds
  read_data CPU = 0.048 seconds

#-----------settings------------

timestep        1
variable        Time equal step*dt/1000 #time in picoseconds
thermo_style    custom step v_Time temp press etotal ke pe epair ebond eangle edihed eimp elong lx ly lz density

# Minimize the PE monomer
min_style	cg
minimize 1.0e-4 1.0e-6 1000 10000
Generated 3 of 3 mixed pair_coeff terms from sixthpower/sixthpower mixing rule
Neighbor list info ...
  update: every = 1 steps, delay = 0 steps, check = yes
  max neighbors/atom: 2000, page size: 100000
  master list distance cutoff = 12
  ghost atom cutoff = 12
  binsize = 6, bins = 8 8 8
  1 neighbor lists, perpetual/occasional/extra = 1 0 0
  (1) pair lj/class2/coul/cut, perpetual
      attributes: half, newton on
      pair build: half/bin/newton
      stencil: half/bin/3d
      bin: standard
Setting up cg style minimization ...
  Unit style    : real
  Current step  : 0
Per MPI rank memory allocation (min/avg/max) = 14.93 | 14.93 | 14.93 Mbytes
   Step         v_Time          Temp          Press          TotEng         KinEng         PotEng         E_pair         E_bond        E_angle        E_dihed        E_impro         E_long           Lx             Ly             Lz          Density    
         0   0              0              1.0188472e+08  50900489       0              50900489       50652515       185421.69      64333.439     -1876.8511      95.320702      0              46.862303      46.862303      46.862303      0.22633189   
       133   0.133          0             -42.217357     -2022.0597      0             -2022.0597      162.3926       11.349815      140.00101     -2409.7033      73.90019       0              46.862303      46.862303      46.862303      0.22633189   
Loop time of 0.190145 on 10 procs for 133 steps with 3000 atoms

98.7% CPU use with 10 MPI tasks x 1 OpenMP threads

Minimization stats:
  Stopping criterion = linesearch alpha is zero
  Energy initial, next-to-last, final = 
      50900488.9174784  -2022.05970281097  -2022.05970281097
  Force two-norm initial, final = 64553748 125.62814
  Force max component initial, final = 2046259.2 42.308954
  Final line search alpha, max atom move = 5.4853045e-13 2.3207749e-11
  Iterations, force evaluations = 133 226

MPI task timing breakdown:
Section |  min time  |  avg time  |  max time  |%varavg| %total
---------------------------------------------------------------
Pair    | 0.077693   | 0.086468   | 0.11344    |   3.2 | 45.47
Bond    | 0.050036   | 0.051302   | 0.053143   |   0.4 | 26.98
Neigh   | 0.0046566  | 0.0047899  | 0.0049122  |   0.2 |  2.52
Comm    | 0.013624   | 0.042271   | 0.051252   |   4.9 | 22.23
Output  | 0          | 0          | 0          |   0.0 |  0.00
Modify  | 0          | 0          | 0          |   0.0 |  0.00
Other   |            | 0.005314   |            |       |  2.79

Nlocal:            300 ave         307 max         289 min
Histogram: 1 0 0 1 0 3 2 0 1 2
Nghost:         2540.7 ave        2569 max        2518 min
Histogram: 1 1 1 2 3 0 0 0 0 2
Neighs:        31031.4 ave       32851 max       29740 min
Histogram: 3 1 1 0 0 2 0 1 1 1

Total # of neighbors = 310314
Ave neighs/atom = 103.438
Ave special neighs/atom = 5.4166667
Neighbor list builds = 6
Dangerous builds = 0
reset_timestep	0

#replicate 5 5 5 # 125 PE monomers

# Calculate thermo frequency from runtime
variable thermofreq equal 2000

# Calculate dump frequency from runtime
variable dumpfreq equal $(10*round(v_thermofreq))
variable dumpfreq equal 20000

#------------run------------

thermo          ${thermofreq}
thermo          2000
thermo_modify   flush yes
dump            1 all custom/gz ${dumpfreq} ${myid}.lammpstrj.gz x y z type id
dump            1 all custom/gz 20000 ${myid}.lammpstrj.gz x y z type id
dump            1 all custom/gz 20000 PE_IFFDfyS0.lammpstrj.gz x y z type id
dump_modify     1 flush yes


fix 1 all nve/limit 0.1
run 10000 # 10 ps
Generated 3 of 3 mixed pair_coeff terms from sixthpower/sixthpower mixing rule
Setting up Verlet run ...
  Unit style    : real
  Current step  : 0
  Time step     : 1
Per MPI rank memory allocation (min/avg/max) = 13.8 | 13.8 | 13.81 Mbytes
   Step         v_Time          Temp          Press          TotEng         KinEng         PotEng         E_pair         E_bond        E_angle        E_dihed        E_impro         E_long           Lx             Ly             Lz          Density    
         0   0              0             -42.217357     -2022.0597      0             -2022.0597      162.3926       11.349815      140.00101     -2409.7033      73.90019       0              46.862303      46.862303      46.862303      0.22633189   
      2000   2              13.62117      -121.11948     -2199.0414      121.76576     -2320.8072     -96.835864      10.571187      145.32266     -2483.0294      103.16425      0              46.862303      46.862303      46.862303      0.22633189   
      4000   4              19.376709     -137.1484      -2134.8255      173.21711     -2308.0426     -91.977402      12.174686      155.00505     -2486.151       102.90609      0              46.862303      46.862303      46.862303      0.22633189   
      6000   6              24.963727     -4.899425      -2139.9753      223.16197     -2363.1373     -171.96936      16.649492      174.27103     -2491.7071      109.6186       0              46.862303      46.862303      46.862303      0.22633189   
      8000   8              29.443364     -112.00701     -2127.6251      263.20746     -2390.8326     -230.65164      17.381318      185.82121     -2471.9718      108.58838      0              46.862303      46.862303      46.862303      0.22633189   
     10000   10             33.644212      75.940929     -2086.8737      300.76073     -2387.6344     -243.20452      20.158414      194.3359      -2467.1039      108.17974      0              46.862303      46.862303      46.862303      0.22633189   
Loop time of 8.38585 on 10 procs for 10000 steps with 3000 atoms

Performance: 103.031 ns/day, 0.233 hours/ns, 1192.485 timesteps/s, 3.577 Matom-step/s
100.0% CPU use with 10 MPI tasks x 1 OpenMP threads

MPI task timing breakdown:
Section |  min time  |  avg time  |  max time  |%varavg| %total
---------------------------------------------------------------
Pair    | 1.4484     | 2.9        | 4.7318     |  55.1 | 34.58
Bond    | 1.4711     | 2.0064     | 2.5554     |  24.6 | 23.93
Neigh   | 0.16676    | 0.16977    | 0.17277    |   0.7 |  2.02
Comm    | 0.92602    | 3.1419     | 5.069      |  70.1 | 37.47
Output  | 0.00020246 | 0.0002388  | 0.00039671 |   0.0 |  0.00
Modify  | 0.014216   | 0.019259   | 0.025685   |   2.3 |  0.23
Other   |            | 0.1483     |            |       |  1.77

Nlocal:            300 ave         578 max         129 min
Histogram: 2 1 1 2 1 0 2 0 0 1
Nghost:         2891.6 ave        3520 max        2322 min
Histogram: 2 0 0 2 2 1 1 0 0 2
Neighs:        43475.7 ave       99683 max        7791 min
Histogram: 2 2 1 1 0 2 0 0 1 1

Total # of neighbors = 434757
Ave neighs/atom = 144.919
Ave special neighs/atom = 5.4166667
Neighbor list builds = 145
Dangerous builds = 0
unfix 1

velocity all create 300 67435

fix 2 all balance 10000 1.05 shift xyz 20 1.05
fix 1 all nvt temp 300 300 1000
run 100000
Generated 3 of 3 mixed pair_coeff terms from sixthpower/sixthpower mixing rule
Setting up Verlet run ...
  Unit style    : real
  Current step  : 10000
  Time step     : 1
Per MPI rank memory allocation (min/avg/max) = 15.09 | 15.38 | 16.21 Mbytes
   Step         v_Time          Temp          Press          TotEng         KinEng         PotEng         E_pair         E_bond        E_angle        E_dihed        E_impro         E_long           Lx             Ly             Lz          Density    
     10000   10             300            1133.5736      294.2004       2681.8348     -2387.6344     -243.20452      20.158414      194.3359      -2467.1039      108.17974      0              46.862303      46.862303      46.862303      0.22633189   
     12000   12             197.71553     -57.305266      950.23321      1767.468      -817.23479     -96.789219      552.3413       939.66597     -2301.7852      89.332337      0              46.862303      46.862303      46.862303      0.22633189   
     14000   14             242.52747     -289.55046      1744.495       2168.062      -423.56701     -106.84977      726.13094      1110.2659     -2241.3503      88.236188      0              46.862303      46.862303      46.862303      0.22633189   
     16000   16             283.69467     -135.82983      2518.5396      2536.0741     -17.534532     -108.19232      881.45369      1317.4742     -2205.9476      97.677595      0              46.862303      46.862303      46.862303      0.22633189   
     18000   18             307.99198     -353.76341      3004.2848      2753.2787      251.00614     -64.774011      936.93325      1449.2529     -2162.5971      92.191149      0              46.862303      46.862303      46.862303      0.22633189   
     20000   20             302.1311      -166.93326      2853.8943      2700.8857      153.00866     -66.060332      879.45814      1355.5112     -2117.733       101.83259      0              46.862303      46.862303      46.862303      0.22633189   
     22000   22             285.03265     -228.56996      2790.5435      2548.035       242.50856      4.714141       922.64056      1373.2527     -2148.7501      90.651268      0              46.862303      46.862303      46.862303      0.22633189   
     24000   24             301.87957     -43.708679      3005.6101      2698.6372      306.97291     -77.478211      949.03458      1468.2902     -2138.6715      105.79787      0              46.862303      46.862303      46.862303      0.22633189   
     26000   26             299.35963      244.70236      2949.1307      2676.1103      273.02043     -13.521941      927.0528       1377.4705     -2103.9433      85.962438      0              46.862303      46.862303      46.862303      0.22633189   
     28000   28             289.98292     -620.63276      2853.8183      2592.2876      261.53071     -5.6941335      908.89168      1392.6363     -2129.8109      95.50783       0              46.862303      46.862303      46.862303      0.22633189   
     30000   30             306.23547     -16.057716      3131.1756      2737.5765      393.59913      73.890782      936.35654      1442.0957     -2154.1195      95.375623      0              46.862303      46.862303      46.862303      0.22633189   
     32000   32             296.11628     -56.412702      2929.0874      2647.1165      281.97092     -2.1249493      906.54402      1445.6624     -2162.3328      94.222289      0              46.862303      46.862303      46.862303      0.22633189   
     34000   34             295.534       -133.52723      2859.7411      2641.9112      217.8299      -14.496546      902.62402      1376.6305     -2131.3937      84.465598      0              46.862303      46.862303      46.862303      0.22633189   
     36000   36             299.35863      354.44738      3132.0665      2676.1013      455.96524      65.841397      948.64568      1449.9132     -2110.1774      101.74243      0              46.862303      46.862303      46.862303      0.22633189   
     38000   38             296.6452      -64.977801      2922.0674      2651.8448      270.22264     -28.33115       943.08217      1402.3957     -2141.5299      94.605737      0              46.862303      46.862303      46.862303      0.22633189   
     40000   40             292.86177     -277.66633      2750.2377      2618.0229      132.21477     -128.45986      918.35023      1412.0323     -2163.9516      94.2437        0              46.862303      46.862303      46.862303      0.22633189   
     42000   42             306.56485      367.01331      3089.3931      2740.521       348.87207      37.198409      945.95468      1397.753      -2132.5282      100.49424      0              46.862303      46.862303      46.862303      0.22633189   
     44000   44             304.49828     -262.24288      2938.3328      2722.047       216.28582     -41.151002      938.11306      1374.9331     -2145.9512      90.341868      0              46.862303      46.862303      46.862303      0.22633189   
     46000   46             298.21091     -90.538993      2923.2036      2665.8414      257.36227      34.500692      930.70698      1352.4663     -2154.8538      94.542105      0              46.862303      46.862303      46.862303      0.22633189   
     48000   48             301.40838      77.522189      2933.8722      2694.425       239.44725     -96.613994      933.86956      1416.7164     -2110.7227      96.198071      0              46.862303      46.862303      46.862303      0.22633189   
     50000   50             300.71078      154.23596      3025.166       2688.1888      336.97725      38.654613      925.82158      1405.4013     -2128.8079      95.907645      0              46.862303      46.862303      46.862303      0.22633189   
     52000   52             299.83195     -739.78444      2907.9482      2680.3326      227.61568     -22.971202      911.79931      1381.627      -2148.3585      105.51909      0              46.862303      46.862303      46.862303      0.22633189   
     54000   54             305.68949     -96.061187      2971.8751      2732.6957      239.17936     -55.560094      921.28713      1421.7316     -2144.0421      95.762824      0              46.862303      46.862303      46.862303      0.22633189   
     56000   56             297.74574      62.421459      3000.6422      2661.683       338.95917      67.569758      931.2239       1381.3415     -2133.0507      91.87472       0              46.862303      46.862303      46.862303      0.22633189   
     58000   58             295.2998      -18.977918      2850.461       2639.8176      210.64345     -74.064897      915.51236      1376.6824     -2096.242       88.755653      0              46.862303      46.862303      46.862303      0.22633189   
     60000   60             311.5483      -99.595635      2927.3153      2785.0703      142.24506     -134.52268      906.17419      1434.0374     -2156.5029      93.059111      0              46.862303      46.862303      46.862303      0.22633189   
     62000   62             299.28989     -345.66745      2866.4319      2675.4868      190.94514     -94.794114      915.90709      1382.9276     -2113.3656      100.27016      0              46.862303      46.862303      46.862303      0.22633189   
     64000   64             294.00342     -393.05999      2907.3036      2628.2287      279.07493     -44.229292      967.54294      1369.2705     -2110.8938      97.384667      0              46.862303      46.862303      46.862303      0.22633189   
     66000   66             306.68644     -234.85889      2948.7121      2741.6079      207.10422     -131.77833      935.3428       1430.8843     -2125.405       98.060392      0              46.862303      46.862303      46.862303      0.22633189   
     68000   68             300.85267      188.80503      2967.2677      2689.4572      277.81049     -22.882293      931.27232      1410.9812     -2135.6256      94.064789      0              46.862303      46.862303      46.862303      0.22633189   
     70000   70             299.96223     -643.19666      2871.6588      2681.4971      190.16171     -86.406397      931.66492      1398.0509     -2155.7575      102.60973      0              46.862303      46.862303      46.862303      0.22633189   
     72000   72             305.89643     -42.698171      2883.1844      2734.5456      148.6388      -110.42385      933.40114      1345.7142     -2114.0193      93.96658       0              46.862303      46.862303      46.862303      0.22633189   
     74000   74             304.9461      -65.422802      2960.0023      2726.0502      233.95211     -35.979552      950.00296      1392.8165     -2171.795       98.907176      0              46.862303      46.862303      46.862303      0.22633189   
     76000   76             299.60287      463.35479      2911.8132      2678.2847      233.52849      2.3337588      900.78844      1376.8733     -2141.2269      94.759846      0              46.862303      46.862303      46.862303      0.22633189   
     78000   78             300.89459      314.82678      2992.2486      2689.8319      302.41669     -49.886513      941.0182       1441.8457     -2125.5705      95.009877      0              46.862303      46.862303      46.862303      0.22633189   
     80000   80             294.46795      153.40661      2860.0883      2632.3813      227.70699     -118.69133      965.92581      1414.3908     -2137.8702      103.95185      0              46.862303      46.862303      46.862303      0.22633189   
     82000   82             299.42559     -251.20046      2890.9286      2676.6999      214.22869     -26.584467      942.58024      1350.7871     -2139.9877      87.433455      0              46.862303      46.862303      46.862303      0.22633189   
     84000   84             294.63666      181.09849      2822.7996      2633.8895      188.91012     -48.3639        897.96251      1376.5694     -2131.8996      94.641713      0              46.862303      46.862303      46.862303      0.22633189   
     86000   86             298.49544     -405.52534      2854.9572      2668.3849      186.57228     -131.54517      960.59057      1404.4153     -2149.0531      102.16464      0              46.862303      46.862303      46.862303      0.22633189   
     88000   88             297.17882      53.639172      2886.5491      2656.615       229.9341      -48.412173      907.10066      1434.1471     -2152.8275      89.926105      0              46.862303      46.862303      46.862303      0.22633189   
     90000   90             301.73626     -167.36095      2982.816       2697.356       285.45996     -40.692875      953.03858      1401.785      -2114.671       86.000236      0              46.862303      46.862303      46.862303      0.22633189   
     92000   92             301.91809      1.2999166      3016.586       2698.9814      317.60452     -4.9607383      932.9226       1407.0255     -2119.8263      102.44345      0              46.862303      46.862303      46.862303      0.22633189   
     94000   94             293.47536     -367.35304      2874.6291      2623.5081      251.12099     -37.878481      954.39879      1371.1604     -2136.5597      100.00003      0              46.862303      46.862303      46.862303      0.22633189   
     96000   96             302.9165       157.9304       2954.4204      2707.9067      246.51367     -55.683778      927.21391      1404.7835     -2115.5506      85.750646      0              46.862303      46.862303      46.862303      0.22633189   
     98000   98             304.4289       220.82222      2990.5925      2721.4268      269.16572      36.49428       929.18462      1354.3026     -2148.1487      97.332865      0              46.862303      46.862303      46.862303      0.22633189   
    100000   100            297.02973      309.04917      2892.6515      2655.2823      237.36926     -23.08037       911.92779      1401.0456     -2149.8379      97.314056      0              46.862303      46.862303      46.862303      0.22633189   
    102000   102            299.00673      56.572614      2923.9958      2672.9556      251.04025     -63.25306       935.57255      1408.7071     -2125.6132      95.626796      0              46.862303      46.862303      46.862303      0.22633189   
    104000   104            300.15282     -391.59844      2880.1761      2683.2009      196.97521     -87.763869      924.34664      1414.7685     -2158.9062      104.53012      0              46.862303      46.862303      46.862303      0.22633189   
    106000   106            297.73341      245.92841      2871.6389      2661.5728      210.06617     -22.962232      926.04601      1379.9776     -2170.6243      97.629063      0              46.862303      46.862303      46.862303      0.22633189   
    108000   108            302.33962      308.66821      3016.0298      2702.7497      313.28008      58.019799      910.35147      1382.6454     -2127.0747      89.338024      0              46.862303      46.862303      46.862303      0.22633189   
    110000   110            297.81615      9.2244463      2924.8003      2662.3124      262.48786     -17.637572      921.97244      1407.1131     -2150.5511      101.59106      0              46.862303      46.862303      46.862303      0.22633189   
Loop time of 113.347 on 10 procs for 100000 steps with 3000 atoms

Performance: 76.226 ns/day, 0.315 hours/ns, 882.243 timesteps/s, 2.647 Matom-step/s
100.0% CPU use with 10 MPI tasks x 1 OpenMP threads

MPI task timing breakdown:
Section |  min time  |  avg time  |  max time  |%varavg| %total
---------------------------------------------------------------
Pair    | 23.034     | 44.893     | 59.111     | 176.0 | 39.61
Bond    | 17.368     | 20.304     | 22.138     |  28.5 | 17.91
Neigh   | 6.9446     | 7.1143     | 7.2787     |   5.8 |  6.28
Comm    | 24.683     | 38.873     | 62.843     | 201.9 | 34.30
Output  | 0.0077211  | 0.026852   | 0.049653   |   8.0 |  0.02
Modify  | 0.48491    | 0.76467    | 1.0064     |  21.0 |  0.67
Other   |            | 1.371      |            |       |  1.21

Nlocal:            300 ave         334 max         263 min
Histogram: 1 1 0 2 1 0 1 2 0 2
Nghost:         3624.6 ave        4442 max        2990 min
Histogram: 3 1 1 0 0 1 1 0 2 1
Neighs:          42610 ave       65738 max       19393 min
Histogram: 2 0 1 0 0 3 2 1 0 1

Total # of neighbors = 426100
Ave neighs/atom = 142.03333
Ave special neighs/atom = 5.4166667
Neighbor list builds = 4679
Dangerous builds = 0
unfix 1
write_data ${myid}_after_NVT.dat
write_data PE_IFFDfyS0_after_NVT.dat
System init for write_data ...
Generated 3 of 3 mixed pair_coeff terms from sixthpower/sixthpower mixing rule
shell pigz -f ${myid}_after_NVT.dat
shell pigz -f PE_IFFDfyS0_after_NVT.dat


fix 1 all npt temp 300 300 100 iso 1.0 1.0 1000

label npt_loop
variable npt loop 50
run 20000 # 20 ps
Generated 3 of 3 mixed pair_coeff terms from sixthpower/sixthpower mixing rule
Setting up Verlet run ...
  Unit style    : real
  Current step  : 110000
  Time step     : 1
Per MPI rank memory allocation (min/avg/max) = 15.16 | 15.87 | 16.25 Mbytes
   Step         v_Time          Temp          Press          TotEng         KinEng         PotEng         E_pair         E_bond        E_angle        E_dihed        E_impro         E_long           Lx             Ly             Lz          Density    
    110000   110            297.81615      9.2244463      2924.8003      2662.3124      262.48786     -17.637572      921.97244      1407.1131     -2150.5511      101.59106      0              46.862303      46.862303      46.862303      0.22633189   
    112000   112            301.02939      118.92325      2988.769       2691.037       297.73204      28.942134      918.01535      1380.6718     -2120.2997      90.402378      0              46.646657      46.646657      46.646657      0.2294854    
    114000   114            294.76838     -121.07372      2967.2818      2635.067       332.21478      63.624371      942.07         1372.0484     -2145.4165      99.888549      0              45.081848      45.081848      45.081848      0.25422105   
    116000   116            297.29271     -738.77174      2856.2995      2657.6331      198.66641     -51.583499      934.32296      1370.0072     -2139.0302      84.949877      0              43.526977      43.526977      43.526977      0.2824497    
    118000   118            302.776        842.25286      2934.6149      2706.6508      227.96414      20.457005      894.48869      1386.4391     -2167.2835      93.862932      0              42.311058      42.311058      42.311058      0.30750698   
    120000   120            307.82013      291.40158      3094.8858      2751.7425      343.1433      -21.744801      931.35155      1442.5783     -2103.0469      94.005205      0              41.177288      41.177288      41.177288      0.33361335   
    122000   122            300.06949     -144.11033      2844.2854      2682.456       161.82934     -140.65042      948.56374      1382.8722     -2134.4379      105.48172      0              39.740236      39.740236      39.740236      0.37112937   
    124000   124            304.62915     -591.48165      2862.6463      2723.2169      139.42947     -89.022181      908.63701      1351.75       -2121.5162      89.580851      0              38.541396      38.541396      38.541396      0.40684999   
    126000   126            294.75337      530.9904       2819.6756      2634.9328      184.7428      -91.928663      916.78805      1401.4989     -2158.2508      116.63535      0              37.508717      37.508717      37.508717      0.44138749   
    128000   128            299.49119     -83.872032      2760.1552      2677.2863      82.868919     -238.6267       949.50101      1421.9667     -2135.3865      85.414491      0              36.375559      36.375559      36.375559      0.48393565   
    130000   130            311.0131       188.09336      2805.412       2780.2858      25.126193     -186.60442      910.43054      1344.9983     -2137.0466      93.348335      0              35.538786      35.538786      35.538786      0.51893014   
Loop time of 23.4802 on 10 procs for 20000 steps with 3000 atoms

Performance: 73.594 ns/day, 0.326 hours/ns, 851.783 timesteps/s, 2.555 Matom-step/s
100.0% CPU use with 10 MPI tasks x 1 OpenMP threads

MPI task timing breakdown:
Section |  min time  |  avg time  |  max time  |%varavg| %total
---------------------------------------------------------------
Pair    | 9.9585     | 10.765     | 11.964     |  18.0 | 45.85
Bond    | 3.4053     | 4.4272     | 5.302      |  31.6 | 18.86
Neigh   | 1.4904     | 1.5338     | 1.5753     |   3.2 |  6.53
Comm    | 4.835      | 6.0968     | 7.9777     |  42.5 | 25.97
Output  | 0.001605   | 0.0056167  | 0.010363   |   3.6 |  0.02
Modify  | 0.2518     | 0.30973    | 0.36268    |   7.8 |  1.32
Other   |            | 0.3417     |            |       |  1.46

Nlocal:            300 ave         334 max         256 min
Histogram: 1 0 3 0 0 1 1 0 2 2
Nghost:         4809.1 ave        4918 max        4637 min
Histogram: 1 0 2 0 1 0 2 0 0 4
Neighs:        73558.8 ave       87230 max       59049 min
Histogram: 1 1 1 0 1 3 1 0 0 2

Total # of neighbors = 735588
Ave neighs/atom = 245.196
Ave special neighs/atom = 5.4166667
Neighbor list builds = 954
Dangerous builds = 0
write_data ${myid}_NPT${npt}x20ps.dat
write_data PE_IFFDfyS0_NPT${npt}x20ps.dat
write_data PE_IFFDfyS0_NPT1x20ps.dat
System init for write_data ...
Generated 3 of 3 mixed pair_coeff terms from sixthpower/sixthpower mixing rule
shell pigz ${myid}_NPT${npt}x20ps.dat
shell pigz PE_IFFDfyS0_NPT${npt}x20ps.dat
shell pigz PE_IFFDfyS0_NPT1x20ps.dat
if "${npt} > 1" then "shell rm ${myid}_NPT$(v_npt-1)x20ps.dat.gz"
next npt
jump SELF npt_loop
variable npt loop 50
run 20000 # 20 ps
Generated 3 of 3 mixed pair_coeff terms from sixthpower/sixthpower mixing rule
Setting up Verlet run ...
  Unit style    : real
  Current step  : 130000
  Time step     : 1
Per MPI rank memory allocation (min/avg/max) = 15.85 | 16.1 | 16.3 Mbytes
   Step         v_Time          Temp          Press          TotEng         KinEng         PotEng         E_pair         E_bond        E_angle        E_dihed        E_impro         E_long           Lx             Ly             Lz          Density    
    130000   130            311.0131       188.09336      2805.412       2780.2858      25.126193     -186.60442      910.43054      1344.9983     -2137.0466      93.348335      0              35.538786      35.538786      35.538786      0.51893014   
    132000   132            300.03262      576.93081      2941.6144      2682.1264      259.48796     -24.39034       931.85319      1375.8593     -2120.7079      96.873676      0              34.640358      34.640358      34.640358      0.56036309   
    134000   134            299.9633       726.18156      2680.0271      2681.5067     -1.4796119     -314.6034       956.40193      1388.2705     -2124.3469      92.798229      0              34.14491       34.14491       34.14491       0.58511161   
    136000   136            299.5118       91.862528      2466.4703      2677.4706     -211.00023     -399.26347      879.66836      1349.7534     -2138.6091      97.45059       0              33.474109      33.474109      33.474109      0.62099708   
    138000   138            304.90216     -1838.2476      2776.881       2725.6574      51.223592     -231.26078      929.74288      1385.252      -2124.5168      92.006312      0              33.478064      33.478064      33.478064      0.62077703   
    140000   140            299.45674     -997.95939      2762.8991      2676.9784      85.920707     -269.37452      948.54357      1423.9564     -2100.9514      83.746665      0              32.890194      32.890194      32.890194      0.65466232   
    142000   142            295.8985      -613.33194      2677.3025      2645.1696      32.132858     -226.6807       917.69861      1376.1776     -2130.2452      95.182581      0              32.934012      32.934012      32.934012      0.65205273   
    144000   144            303.51018     -499.07031      2659.5409      2713.2139     -53.67298      -390.23843      967.46014      1388.6969     -2120.7393      101.14766      0              33.039066      33.039066      33.039066      0.6458525    
    146000   146            311.21248      489.55025      2524.7068      2782.0682     -257.36143     -482.4898       894.38984      1385.1346     -2141.071       86.675002      0              33.153474      33.153474      33.153474      0.63918934   
    148000   148            304.90379     -1456.2746      2839.9895      2725.672       114.31751     -179.87162      920.7847       1409.7373     -2147.6678      111.33493      0              33.053061      33.053061      33.053061      0.64503248   
    150000   150            293.23142     -410.31679      2578.6888      2621.3274     -42.638638     -303.48685      929.13942      1380.288      -2139.5966      91.017426      0              33.004432      33.004432      33.004432      0.64788785   
Loop time of 31.3223 on 10 procs for 20000 steps with 3000 atoms

Performance: 55.168 ns/day, 0.435 hours/ns, 638.523 timesteps/s, 1.916 Matom-step/s
100.0% CPU use with 10 MPI tasks x 1 OpenMP threads

MPI task timing breakdown:
Section |  min time  |  avg time  |  max time  |%varavg| %total
---------------------------------------------------------------
Pair    | 16.928     | 17.95      | 19.175     |  15.9 | 57.31
Bond    | 4.1853     | 4.4286     | 4.8512     |   9.0 | 14.14
Neigh   | 2.0883     | 2.1269     | 2.1639     |   2.5 |  6.79
Comm    | 4.2472     | 6.0504     | 7.3919     |  36.9 | 19.32
Output  | 0.0014629  | 0.0054688  | 0.010013   |   3.6 |  0.02
Modify  | 0.24942    | 0.29645    | 0.34382    |   6.8 |  0.95
Other   |            | 0.4645     |            |       |  1.48

Nlocal:            300 ave         330 max         272 min
Histogram: 2 0 2 1 0 0 3 0 1 1
Nghost:         5633.2 ave        5722 max        5542 min
Histogram: 1 2 0 1 0 2 1 1 0 2
Neighs:        90031.5 ave      101887 max       78949 min
Histogram: 2 1 1 0 1 0 2 1 0 2

Total # of neighbors = 900315
Ave neighs/atom = 300.105
Ave special neighs/atom = 5.4166667
Neighbor list builds = 953
Dangerous builds = 0
write_data ${myid}_NPT${npt}x20ps.dat
write_data PE_IFFDfyS0_NPT${npt}x20ps.dat
write_data PE_IFFDfyS0_NPT2x20ps.dat
System init for write_data ...
Generated 3 of 3 mixed pair_coeff terms from sixthpower/sixthpower mixing rule
shell pigz ${myid}_NPT${npt}x20ps.dat
shell pigz PE_IFFDfyS0_NPT${npt}x20ps.dat
shell pigz PE_IFFDfyS0_NPT2x20ps.dat
if "${npt} > 1" then "shell rm ${myid}_NPT$(v_npt-1)x20ps.dat.gz"
shell rm ${myid}_NPT$(v_npt-1)x20ps.dat.gz
shell rm PE_IFFDfyS0_NPT$(v_npt-1)x20ps.dat.gz
shell rm PE_IFFDfyS0_NPT1x20ps.dat.gz
next npt
jump SELF npt_loop
variable npt loop 50
run 20000 # 20 ps
Generated 3 of 3 mixed pair_coeff terms from sixthpower/sixthpower mixing rule
Setting up Verlet run ...
  Unit style    : real
  Current step  : 150000
  Time step     : 1
Per MPI rank memory allocation (min/avg/max) = 16.25 | 16.31 | 16.45 Mbytes
   Step         v_Time          Temp          Press          TotEng         KinEng         PotEng         E_pair         E_bond        E_angle        E_dihed        E_impro         E_long           Lx             Ly             Lz          Density    
    150000   150            293.23142     -410.31679      2578.6888      2621.3274     -42.638638     -303.48685      929.13942      1380.288      -2139.5966      91.017426      0              33.004432      33.004432      33.004432      0.64788785   
    152000   152            297.25701     -888.12703      2626.3624      2657.3139     -30.951548     -281.64096      910.87397      1386.7038     -2150.4609      103.5726       0              33.231973      33.231973      33.231973      0.63467041   
    154000   154            299.7964      -321.43478      2626.8531      2680.0147     -53.161628     -351.48192      931.96129      1427.3917     -2151.2649      90.232177      0              32.971253      32.971253      32.971253      0.64984574   
    156000   156            304.21819     -351.99782      2765.1762      2719.5431      45.633026     -289.64004      935.24167      1441.2647     -2137.7671      96.533806      0              33.40363       33.40363       33.40363       0.62493616   
    158000   158            292.54384     -907.44486      2594.3349      2615.1808     -20.845851     -307.32868      905.59361      1415.1449     -2134.4142      100.15859      0              33.426474      33.426474      33.426474      0.62365578   
    160000   160            306.46509     -576.80648      2737.4723      2739.6291     -2.1568896     -259.24968      902.59319      1397.8658     -2143.1881      99.821846      0              33.311541      33.311541      33.311541      0.63013339   
    162000   162            298.19255     -723.77221      2772.9243      2665.6772      107.24709     -177.99379      937.24592      1408.2676     -2149.7468      89.474105      0              33.763257      33.763257      33.763257      0.6051787    
    164000   164            305.29915     -209.98589      2662.4916      2729.2063     -66.714619     -287.67385      892.38326      1381.9798     -2146.3109      92.907082      0              33.079803      33.079803      33.079803      0.64346941   
    166000   166            294.30992      248.2936       2593.2117      2630.9686     -37.756945     -287.23632      909.97165      1367.4242     -2120.2827      92.366168      0              33.302453      33.302453      33.302453      0.6306494    
    168000   168            305.15602     -974.32402      2586.6032      2727.9268     -141.32359     -376.05059      893.66457      1362.8957     -2115.8192      93.985917      0              33.306505      33.306505      33.306505      0.63041922   
    170000   170            298.01014      2139.9843      2642.4399      2664.0466     -21.606687     -307.95458      913.9943       1401.2009     -2125.6349      96.787561      0              32.792798      32.792798      32.792798      0.66051278   
Loop time of 31.175 on 10 procs for 20000 steps with 3000 atoms

Performance: 55.429 ns/day, 0.433 hours/ns, 641.541 timesteps/s, 1.925 Matom-step/s
100.0% CPU use with 10 MPI tasks x 1 OpenMP threads

MPI task timing breakdown:
Section |  min time  |  avg time  |  max time  |%varavg| %total
---------------------------------------------------------------
Pair    | 16.323     | 18.228     | 20.326     |  27.4 | 58.47
Bond    | 4.1348     | 4.431      | 4.8019     |   9.8 | 14.21
Neigh   | 2.0656     | 2.1043     | 2.142      |   2.6 |  6.75
Comm    | 2.9988     | 5.6333     | 7.8887     |  60.6 | 18.07
Output  | 0.001501   | 0.0054868  | 0.01005    |   3.6 |  0.02
Modify  | 0.25139    | 0.2993     | 0.35053    |   6.9 |  0.96
Other   |            | 0.4737     |            |       |  1.52

Nlocal:            300 ave         322 max         281 min
Histogram: 2 1 1 1 0 1 1 1 1 1
Nghost:         5638.4 ave        5747 max        5584 min
Histogram: 4 2 0 1 0 0 1 0 1 1
Neighs:        91579.1 ave       97706 max       81679 min
Histogram: 1 0 1 0 1 2 0 2 2 1

Total # of neighbors = 915791
Ave neighs/atom = 305.26367
Ave special neighs/atom = 5.4166667
Neighbor list builds = 954
Dangerous builds = 0
write_data ${myid}_NPT${npt}x20ps.dat
write_data PE_IFFDfyS0_NPT${npt}x20ps.dat
write_data PE_IFFDfyS0_NPT3x20ps.dat
System init for write_data ...
Generated 3 of 3 mixed pair_coeff terms from sixthpower/sixthpower mixing rule
shell pigz ${myid}_NPT${npt}x20ps.dat
shell pigz PE_IFFDfyS0_NPT${npt}x20ps.dat
shell pigz PE_IFFDfyS0_NPT3x20ps.dat
if "${npt} > 1" then "shell rm ${myid}_NPT$(v_npt-1)x20ps.dat.gz"
shell rm ${myid}_NPT$(v_npt-1)x20ps.dat.gz
shell rm PE_IFFDfyS0_NPT$(v_npt-1)x20ps.dat.gz
shell rm PE_IFFDfyS0_NPT2x20ps.dat.gz
next npt
jump SELF npt_loop
variable npt loop 50
run 20000 # 20 ps
Generated 3 of 3 mixed pair_coeff terms from sixthpower/sixthpower mixing rule
Setting up Verlet run ...
  Unit style    : real
  Current step  : 170000
  Time step     : 1
Per MPI rank memory allocation (min/avg/max) = 16.25 | 16.31 | 16.45 Mbytes
   Step         v_Time          Temp          Press          TotEng         KinEng         PotEng         E_pair         E_bond        E_angle        E_dihed        E_impro         E_long           Lx             Ly             Lz          Density    
    170000   170            298.01014      2139.9843      2642.4399      2664.0466     -21.606687     -307.95458      913.9943       1401.2009     -2125.6349      96.787561      0              32.792798      32.792798      32.792798      0.66051278   
    172000   172            303.10155      292.74632      2792.5749      2709.561       83.013962     -242.30511      936.69082      1441.3617     -2138.7194      85.98589       0              33.393707      33.393707      33.393707      0.6254934    
    174000   174            305.3311      -719.36643      2724.5816      2729.4919     -4.9102616     -280.07151      930.60555      1434.1049     -2184.6623      95.113045      0              33.233018      33.233018      33.233018      0.63461058   
    176000   176            293.99264     -926.85162      2524.4161      2628.1323     -103.71623     -354.60444      929.91031      1365.1874     -2145.4456      101.23606      0              32.947412      32.947412      32.947412      0.6512575    
    178000   178            297.50952      903.52397      2525.021       2659.5713     -134.5503      -353.30076      874.54672      1386.8556     -2131.8096      89.157713      0              32.819188      32.819188      32.819188      0.65892068   
    180000   180            291.78625     -548.75642      2619.87        2608.4084      11.461581     -300.49633      950.97184      1424.5077     -2158.7085      95.186856      0              33.39904       33.39904       33.39904       0.62519383   
    182000   182            298.01395      661.82321      2660.014       2664.0806     -4.0666229     -332.6114       945.05438      1446.7337     -2166.855       103.61175      0              33.143393      33.143393      33.143393      0.63977278   
    184000   184            303.2312      -494.89319      2729.1367      2710.7199      18.416773     -271.03876      967.2227       1374.7232     -2136.3547      83.86436       0              33.100857      33.100857      33.100857      0.64224236   
    186000   186            304.48998     -791.39725      2852.0571      2721.9728      130.08428     -174.81797      898.73832      1434.0565     -2133.803       105.91043      0              32.853017      32.853017      32.853017      0.65688732   
    188000   188            295.35436     -565.14818      2636.9077      2640.3053     -3.3976118     -275.35611      920.91403      1381.6535     -2122.8932      92.284098      0              33.284887      33.284887      33.284887      0.6316484    
    190000   190            296.81054      214.83399      2681.2127      2653.3228      27.889963     -246.88877      918.27296      1390.3837     -2126.3212      92.44322       0              33.157071      33.157071      33.157071      0.63898135   
Loop time of 32.3795 on 10 procs for 20000 steps with 3000 atoms

Performance: 53.367 ns/day, 0.450 hours/ns, 617.675 timesteps/s, 1.853 Matom-step/s
100.0% CPU use with 10 MPI tasks x 1 OpenMP threads

MPI task timing breakdown:
Section |  min time  |  avg time  |  max time  |%varavg| %total
---------------------------------------------------------------
Pair    | 16.686     | 18.502     | 22.266     |  35.2 | 57.14
Bond    | 4.1524     | 4.4311     | 4.9718     |  11.7 | 13.68
Neigh   | 2.0377     | 2.0763     | 2.1142     |   2.6 |  6.41
Comm    | 2.1184     | 6.5826     | 8.6884     |  70.2 | 20.33
Output  | 0.0014137  | 0.0054934  | 0.010122   |   3.7 |  0.02
Modify  | 0.24939    | 0.30175    | 0.35169    |   6.7 |  0.93
Other   |            | 0.4798     |            |       |  1.48

Nlocal:            300 ave         307 max         285 min
Histogram: 2 0 0 0 1 0 0 2 1 4
Nghost:           5543 ave        5740 max        5367 min
Histogram: 2 3 0 0 0 0 0 3 0 2
Neighs:        88587.3 ave       95380 max       77380 min
Histogram: 1 1 0 1 1 0 0 2 1 3

Total # of neighbors = 885873
Ave neighs/atom = 295.291
Ave special neighs/atom = 5.4166667
Neighbor list builds = 950
Dangerous builds = 0
write_data ${myid}_NPT${npt}x20ps.dat
write_data PE_IFFDfyS0_NPT${npt}x20ps.dat
write_data PE_IFFDfyS0_NPT4x20ps.dat
System init for write_data ...
Generated 3 of 3 mixed pair_coeff terms from sixthpower/sixthpower mixing rule
shell pigz ${myid}_NPT${npt}x20ps.dat
shell pigz PE_IFFDfyS0_NPT${npt}x20ps.dat
shell pigz PE_IFFDfyS0_NPT4x20ps.dat
if "${npt} > 1" then "shell rm ${myid}_NPT$(v_npt-1)x20ps.dat.gz"
shell rm ${myid}_NPT$(v_npt-1)x20ps.dat.gz
shell rm PE_IFFDfyS0_NPT$(v_npt-1)x20ps.dat.gz
shell rm PE_IFFDfyS0_NPT3x20ps.dat.gz
next npt
jump SELF npt_loop
variable npt loop 50
run 20000 # 20 ps
Generated 3 of 3 mixed pair_coeff terms from sixthpower/sixthpower mixing rule
Setting up Verlet run ...
  Unit style    : real
  Current step  : 190000
  Time step     : 1
Per MPI rank memory allocation (min/avg/max) = 16.25 | 16.31 | 16.45 Mbytes
   Step         v_Time          Temp          Press          TotEng         KinEng         PotEng         E_pair         E_bond        E_angle        E_dihed        E_impro         E_long           Lx             Ly             Lz          Density    
    190000   190            296.81054      214.83399      2681.2127      2653.3228      27.889963     -246.88877      918.27296      1390.3837     -2126.3212      92.44322       0              33.157071      33.157071      33.157071      0.63898135   
    192000   192            295.86059     -930.87336      2557.2004      2644.8308     -87.630419     -359.10333      929.20228      1375.1564     -2131.9634      99.077566      0              33.214427      33.214427      33.214427      0.63567678   
    194000   194            294.85299     -460.77316      2581.2386      2635.8234     -54.584801     -297.40704      925.4496       1363.0085     -2131.8611      86.225291      0              32.982185      32.982185      32.982185      0.6491998    
    196000   196            302.98913      1721.2048      2722.5276      2708.556       13.971634     -273.59678      953.74857      1369.4257     -2126.4582      90.852312      0              33.292942      33.292942      33.292942      0.63119002   
    198000   198            297.7933      -819.64578      2676.9582      2662.1081      14.85008      -300.78553      978.63891      1370.7251     -2138.5046      104.77623      0              33.162579      33.162579      33.162579      0.63866298   
    200000   200            294.64187     -2376.483       2699.5824      2633.9361      65.6463       -264.94297      930.8171       1449.8532     -2153.1928      103.11175      0              33.315925      33.315925      33.315925      0.62988463   
    202000   202            302.10878      977.73213      2656.4363      2700.6861     -44.249844     -264.8765       897.81104      1357.5834     -2130.7478      95.980062      0              32.765301      32.765301      32.765301      0.66217711   
    204000   204            297.62923     -177.19917      2631.2138      2660.6414     -29.427597     -335.59142      941.09481      1397.7786     -2125.6681      92.958534      0              33.018293      33.018293      33.018293      0.64707229   
    206000   206            292.91997      234.22125      2725.3958      2618.5432      106.8526      -191.33465      948.47322      1397.3932     -2150.2266      102.54739      0              33.2215        33.2215        33.2215        0.63527088   
    208000   208            298.72367      392.98254      2624.8895      2670.4251     -45.53561      -312.58985      949.09956      1383.1546     -2168.5837      103.38376      0              32.983752      32.983752      32.983752      0.6491073    
    210000   210            304.91771      271.76373      2763.1121      2725.7965      37.315622     -342.26801      950.71814      1439.2415     -2103.8509      93.474856      0              33.669622      33.669622      33.669622      0.61024178   
Loop time of 32.5437 on 10 procs for 20000 steps with 3000 atoms

Performance: 53.098 ns/day, 0.452 hours/ns, 614.558 timesteps/s, 1.844 Matom-step/s
100.0% CPU use with 10 MPI tasks x 1 OpenMP threads

MPI task timing breakdown:
Section |  min time  |  avg time  |  max time  |%varavg| %total
---------------------------------------------------------------
Pair    | 16.893     | 18.469     | 21.163     |  27.9 | 56.75
Bond    | 4.0897     | 4.4315     | 4.7721     |  10.5 | 13.62
Neigh   | 2.13       | 2.1695     | 2.2072     |   2.5 |  6.67
Comm    | 3.4944     | 6.6974     | 8.4203     |  55.4 | 20.58
Output  | 0.0014718  | 0.0055205  | 0.010151   |   3.6 |  0.02
Modify  | 0.25109    | 0.29915    | 0.35111    |   7.0 |  0.92
Other   |            | 0.4715     |            |       |  1.45

Nlocal:            300 ave         330 max         254 min
Histogram: 1 0 1 2 1 0 0 0 2 3
Nghost:         5386.6 ave        5520 max        5285 min
Histogram: 1 1 0 3 1 3 0 0 0 1
Neighs:        85244.3 ave      102680 max       72137 min
Histogram: 2 1 2 0 1 1 1 0 0 2

Total # of neighbors = 852443
Ave neighs/atom = 284.14767
Ave special neighs/atom = 5.4166667
Neighbor list builds = 950
Dangerous builds = 0
write_data ${myid}_NPT${npt}x20ps.dat
write_data PE_IFFDfyS0_NPT${npt}x20ps.dat
write_data PE_IFFDfyS0_NPT5x20ps.dat
System init for write_data ...
Generated 3 of 3 mixed pair_coeff terms from sixthpower/sixthpower mixing rule
shell pigz ${myid}_NPT${npt}x20ps.dat
shell pigz PE_IFFDfyS0_NPT${npt}x20ps.dat
shell pigz PE_IFFDfyS0_NPT5x20ps.dat
if "${npt} > 1" then "shell rm ${myid}_NPT$(v_npt-1)x20ps.dat.gz"
shell rm ${myid}_NPT$(v_npt-1)x20ps.dat.gz
shell rm PE_IFFDfyS0_NPT$(v_npt-1)x20ps.dat.gz
shell rm PE_IFFDfyS0_NPT4x20ps.dat.gz
next npt
jump SELF npt_loop
variable npt loop 50
run 20000 # 20 ps
Generated 3 of 3 mixed pair_coeff terms from sixthpower/sixthpower mixing rule
Setting up Verlet run ...
  Unit style    : real
  Current step  : 210000
  Time step     : 1
Per MPI rank memory allocation (min/avg/max) = 16.25 | 16.31 | 16.45 Mbytes
   Step         v_Time          Temp          Press          TotEng         KinEng         PotEng         E_pair         E_bond        E_angle        E_dihed        E_impro         E_long           Lx             Ly             Lz          Density    
    210000   210            304.91771      271.76373      2763.1121      2725.7965      37.315622     -342.26801      950.71814      1439.2415     -2103.8509      93.474856      0              33.669622      33.669622      33.669622      0.61024178   
    212000   212            298.26241      440.12845      2544.6386      2666.3017     -121.66312     -338.36067      878.49626      1375.3081     -2127.1178      90.01098       0              33.34416       33.34416       33.34416       0.6282859    
    214000   214            299.47769     -36.679215      2618.171       2677.1656     -58.994649     -266.93031      900.1634       1351.7879     -2144.424       100.40836      0              33.07525       33.07525       33.07525       0.64373515   
    216000   216            295.86425     -644.92753      2684.5303      2644.8635      39.666849     -256.18926      919.69743      1412.368      -2137.7916      101.58232      0              33.730318      33.730318      33.730318      0.60695338   
    218000   218            302.03873      848.9776       2682.5894      2700.06       -17.470569     -246.356        898.96694      1368.9689     -2141.8526      102.80219      0              33.232391      33.232391      33.232391      0.63464648   
    220000   220            305.31908     -724.5643       2774.7162      2729.3844      45.331744     -268.54752      944.46489      1395.1522     -2120.2824      94.54463       0              33.060888      33.060888      33.060888      0.64457449   
    222000   222            292.83167     -699.73123      2559.8943      2617.7538     -57.859551     -361.17562      945.06113      1406.2011     -2129.0042      81.058         0              33.044437      33.044437      33.044437      0.64553766   
    224000   224            299.37911      421.13         2404.2867      2676.2844     -271.99765     -492.60266      886.64727      1385.0666     -2155.6151      104.50617      0              32.732638      32.732638      32.732638      0.66416139   
    226000   226            298.28386      207.60256      2684.9686      2666.4934      18.475151     -251.97523      951.27613      1349.1331     -2120.8046      90.845835      0              32.66879       32.66879       32.66879       0.66806311   
    228000   228            300.23972     -538.22087      2655.0651      2683.9778     -28.912711     -328.12317      971.23923      1379.91       -2149.1718      97.233092      0              33.089103      33.089103      33.089103      0.64292699   
    230000   230            300.25301      961.96924      2670.8402      2684.0965     -13.256308     -266.46433      938.74329      1386.779      -2159.342       87.027696      0              32.5418        32.5418        32.5418        0.67591475   
Loop time of 31.9721 on 10 procs for 20000 steps with 3000 atoms

Performance: 54.047 ns/day, 0.444 hours/ns, 625.545 timesteps/s, 1.877 Matom-step/s
100.0% CPU use with 10 MPI tasks x 1 OpenMP threads

MPI task timing breakdown:
Section |  min time  |  avg time  |  max time  |%varavg| %total
---------------------------------------------------------------
Pair    | 17.077     | 18.46      | 20.427     |  22.5 | 57.74
Bond    | 4.1284     | 4.4296     | 4.6513     |   7.4 | 13.85
Neigh   | 2.0957     | 2.1362     | 2.1755     |   2.7 |  6.68
Comm    | 3.8661     | 6.164      | 7.9527     |  49.0 | 19.28
Output  | 0.0014791  | 0.0054839  | 0.010042   |   3.6 |  0.02
Modify  | 0.25086    | 0.2959     | 0.34303    |   6.4 |  0.93
Other   |            | 0.4814     |            |       |  1.51

Nlocal:            300 ave         314 max         287 min
Histogram: 1 0 1 1 3 1 1 1 0 1
Nghost:         5754.5 ave        5830 max        5685 min
Histogram: 2 0 0 1 1 3 2 0 0 1
Neighs:          94007 ave       99947 max       87280 min
Histogram: 1 1 0 1 1 2 2 0 0 2

Total # of neighbors = 940070
Ave neighs/atom = 313.35667
Ave special neighs/atom = 5.4166667
Neighbor list builds = 954
Dangerous builds = 0
write_data ${myid}_NPT${npt}x20ps.dat
write_data PE_IFFDfyS0_NPT${npt}x20ps.dat
write_data PE_IFFDfyS0_NPT6x20ps.dat
System init for write_data ...
Generated 3 of 3 mixed pair_coeff terms from sixthpower/sixthpower mixing rule
shell pigz ${myid}_NPT${npt}x20ps.dat
shell pigz PE_IFFDfyS0_NPT${npt}x20ps.dat
shell pigz PE_IFFDfyS0_NPT6x20ps.dat
if "${npt} > 1" then "shell rm ${myid}_NPT$(v_npt-1)x20ps.dat.gz"
shell rm ${myid}_NPT$(v_npt-1)x20ps.dat.gz
shell rm PE_IFFDfyS0_NPT$(v_npt-1)x20ps.dat.gz
shell rm PE_IFFDfyS0_NPT5x20ps.dat.gz
next npt
jump SELF npt_loop
variable npt loop 50
run 20000 # 20 ps
Generated 3 of 3 mixed pair_coeff terms from sixthpower/sixthpower mixing rule
Setting up Verlet run ...
  Unit style    : real
  Current step  : 230000
  Time step     : 1
Per MPI rank memory allocation (min/avg/max) = 16.25 | 16.31 | 16.45 Mbytes
   Step         v_Time          Temp          Press          TotEng         KinEng         PotEng         E_pair         E_bond        E_angle        E_dihed        E_impro         E_long           Lx             Ly             Lz          Density    
    230000   230            300.25301      961.96924      2670.8402      2684.0965     -13.256308     -266.46433      938.74329      1386.779      -2159.342       87.027696      0              32.5418        32.5418        32.5418        0.67591475   
    232000   232            297.52193     -1118.2797      2786.8395      2659.6822      127.15733     -215.87053      919.96865      1479.0813     -2142.7752      86.753187      0              32.983316      32.983316      32.983316      0.64913302   
    234000   234            298.77426      85.471807      2619.4884      2670.8774     -51.388967     -313.80562      947.42957      1381.3234     -2163.9394      97.603087      0              32.859724      32.859724      32.859724      0.65648512   
    236000   236            300.82703     -7.9317         2778.8208      2689.228       89.592852     -208.32854      934.12943      1448.8625     -2183.8176      98.74708       0              33.438433      33.438433      33.438433      0.62298685   
    238000   238            295.39213     -435.60066      2794.751       2640.643       154.10801     -144.75847      916.90178      1420.0489     -2126.5913      88.5072        0              33.493287      33.493287      33.493287      0.61993096   
    240000   240            300.7743      -127.41586      2683.0032      2688.7566     -5.7534059     -342.59551      953.82388      1438.3958     -2152.96        97.582437      0              33.169171      33.169171      33.169171      0.6382823    
    242000   242            300.24958      348.51864      2796.0789      2684.0659      112.01291     -215.08753      950.18162      1402.6499     -2125.0027      99.27168       0              33.556841      33.556841      33.556841      0.61641533   
    244000   244            300.5856       1549.4703      2669.4862      2687.0697     -17.58353      -385.59163      988.35018      1433.2663     -2143.2698      89.661426      0              32.870119      32.870119      32.870119      0.65586253   
    246000   246            297.31223     -929.90602      2687.7197      2657.8076      29.912037     -292.71889      965.22463      1399.7221     -2134.3065      91.990735      0              33.137743      33.137743      33.137743      0.64010005   
    248000   248            300.92115      503.15329      2879.6322      2690.0694      189.56285     -65.078269      934.32283      1391.1706     -2166.6161      95.763809      0              33.668436      33.668436      33.668436      0.61030625   
    250000   250            298.95287      413.57438      2676.1965      2672.474       3.7224008     -259.78827      948.70137      1361.2148     -2135.7585      89.352992      0              33.207899      33.207899      33.207899      0.63605172   
Loop time of 31.0052 on 10 procs for 20000 steps with 3000 atoms

Performance: 55.733 ns/day, 0.431 hours/ns, 645.053 timesteps/s, 1.935 Matom-step/s
100.0% CPU use with 10 MPI tasks x 1 OpenMP threads

MPI task timing breakdown:
Section |  min time  |  avg time  |  max time  |%varavg| %total
---------------------------------------------------------------
Pair    | 16.985     | 18.429     | 20.42      |  21.2 | 59.44
Bond    | 4.1271     | 4.4303     | 4.7356     |   8.7 | 14.29
Neigh   | 2.0494     | 2.0892     | 2.1268     |   2.6 |  6.74
Comm    | 2.8645     | 5.279      | 6.8517     |  47.5 | 17.03
Output  | 0.0014099  | 0.0054834  | 0.010077   |   3.7 |  0.02
Modify  | 0.25381    | 0.29583    | 0.34498    |   6.5 |  0.95
Other   |            | 0.4761     |            |       |  1.54

Nlocal:            300 ave         325 max         270 min
Histogram: 1 0 0 0 4 0 3 1 0 1
Nghost:         5540.4 ave        5800 max        5245 min
Histogram: 1 0 3 0 1 0 1 1 2 1
Neighs:        88184.2 ave       96605 max       80223 min
Histogram: 1 1 2 0 1 2 0 2 0 1

Total # of neighbors = 881842
Ave neighs/atom = 293.94733
Ave special neighs/atom = 5.4166667
Neighbor list builds = 955
Dangerous builds = 0
write_data ${myid}_NPT${npt}x20ps.dat
write_data PE_IFFDfyS0_NPT${npt}x20ps.dat
write_data PE_IFFDfyS0_NPT7x20ps.dat
System init for write_data ...
Generated 3 of 3 mixed pair_coeff terms from sixthpower/sixthpower mixing rule
shell pigz ${myid}_NPT${npt}x20ps.dat
shell pigz PE_IFFDfyS0_NPT${npt}x20ps.dat
shell pigz PE_IFFDfyS0_NPT7x20ps.dat
if "${npt} > 1" then "shell rm ${myid}_NPT$(v_npt-1)x20ps.dat.gz"
shell rm ${myid}_NPT$(v_npt-1)x20ps.dat.gz
shell rm PE_IFFDfyS0_NPT$(v_npt-1)x20ps.dat.gz
shell rm PE_IFFDfyS0_NPT6x20ps.dat.gz
next npt
jump SELF npt_loop
variable npt loop 50
run 20000 # 20 ps
Generated 3 of 3 mixed pair_coeff terms from sixthpower/sixthpower mixing rule
Setting up Verlet run ...
  Unit style    : real
  Current step  : 250000
  Time step     : 1
Per MPI rank memory allocation (min/avg/max) = 16.25 | 16.31 | 16.45 Mbytes
   Step         v_Time          Temp          Press          TotEng         KinEng         PotEng         E_pair         E_bond        E_angle        E_dihed        E_impro         E_long           Lx             Ly             Lz          Density    
    250000   250            298.95287      413.57438      2676.1965      2672.474       3.7224008     -259.78827      948.70137      1361.2148     -2135.7585      89.352992      0              33.207899      33.207899      33.207899      0.63605172   
    252000   252            302.77337      761.16099      2773.5733      2706.6272      66.946072     -230.71376      950.64713      1401.6003     -2158.0877      103.50003      0              33.601196      33.601196      33.601196      0.61397748   
    254000   254            296.94914      291.26168      2754.6496      2654.5618      100.08779     -145.78287      898.61701      1387.0357     -2140.0709      100.28892      0              33.112212      33.112212      33.112212      0.64158182   
    256000   256            309.50786     -475.26223      2749.7761      2766.8299     -17.053748     -249.94701      900.43296      1375.706      -2137.6214      94.375731      0              33.512591      33.512591      33.512591      0.6188603    
    258000   258            298.04395      1638.588       2863.6737      2664.3488      199.32487     -149.84953      968.97318      1396.7942     -2107.954       91.361005      0              33.442811      33.442811      33.442811      0.62274223   
    260000   260            304.79998     -982.67277      2682.701       2724.744      -42.043026     -238.1066       876.91131      1341.7587     -2117.297       94.69055       0              33.38103       33.38103       33.38103       0.62620634   
    262000   262            293.54854     -607.9325       2612.0549      2624.1623     -12.107375     -281.59729      904.14825      1388.6288     -2122.0348      98.747663      0              33.315492      33.315492      33.315492      0.62990921   
    264000   264            297.26085     -891.39012      2748.1495      2657.3483      90.801227     -201.20963      906.17801      1396.9448     -2101.6431      90.531123      0              33.839743      33.839743      33.839743      0.60108442   
    266000   266            295.83589      263.16643      2608.2127      2644.61       -36.39728      -276.53287      881.32754      1423.0847     -2164.3336      100.057        0              33.695205      33.695205      33.695205      0.60885284   
    268000   268            303.48732      422.62084      2699.8312      2713.0095     -13.178297     -319.80017      930.44803      1391.6527     -2118.0975      102.6187       0              33.229326      33.229326      33.229326      0.6348221    
    270000   270            302.60724      494.72603      2688.2341      2705.1421     -16.908046     -258.1607       891.37684      1392.4151     -2137.4217      94.882417      0              33.762452      33.762452      33.762452      0.60522198   
Loop time of 31.9686 on 10 procs for 20000 steps with 3000 atoms

Performance: 54.053 ns/day, 0.444 hours/ns, 625.614 timesteps/s, 1.877 Matom-step/s
100.0% CPU use with 10 MPI tasks x 1 OpenMP threads

MPI task timing breakdown:
Section |  min time  |  avg time  |  max time  |%varavg| %total
---------------------------------------------------------------
Pair    | 16.884     | 17.974     | 21.394     |  28.9 | 56.22
Bond    | 4.2335     | 4.4323     | 5.0086     |  10.4 | 13.86
Neigh   | 2.0923     | 2.1322     | 2.1705     |   2.6 |  6.67
Comm    | 2.4781     | 6.6428     | 8.0014     |  57.9 | 20.78
Output  | 0.0015694  | 0.0056051  | 0.010814   |   3.7 |  0.02
Modify  | 0.25765    | 0.30623    | 0.35731    |   6.9 |  0.96
Other   |            | 0.4756     |            |       |  1.49

Nlocal:            300 ave         326 max         276 min
Histogram: 2 0 2 1 1 0 0 1 1 2
Nghost:         5424.1 ave        5582 max        5317 min
Histogram: 2 0 3 2 0 0 1 0 0 2
Neighs:        84026.3 ave       97199 max       77220 min
Histogram: 3 0 2 0 4 0 0 0 0 1

Total # of neighbors = 840263
Ave neighs/atom = 280.08767
Ave special neighs/atom = 5.4166667
Neighbor list builds = 956
Dangerous builds = 0
write_data ${myid}_NPT${npt}x20ps.dat
write_data PE_IFFDfyS0_NPT${npt}x20ps.dat
write_data PE_IFFDfyS0_NPT8x20ps.dat
System init for write_data ...
Generated 3 of 3 mixed pair_coeff terms from sixthpower/sixthpower mixing rule
shell pigz ${myid}_NPT${npt}x20ps.dat
shell pigz PE_IFFDfyS0_NPT${npt}x20ps.dat
shell pigz PE_IFFDfyS0_NPT8x20ps.dat
if "${npt} > 1" then "shell rm ${myid}_NPT$(v_npt-1)x20ps.dat.gz"
shell rm ${myid}_NPT$(v_npt-1)x20ps.dat.gz
shell rm PE_IFFDfyS0_NPT$(v_npt-1)x20ps.dat.gz
shell rm PE_IFFDfyS0_NPT7x20ps.dat.gz
next npt
jump SELF npt_loop
variable npt loop 50
run 20000 # 20 ps
Generated 3 of 3 mixed pair_coeff terms from sixthpower/sixthpower mixing rule
Setting up Verlet run ...
  Unit style    : real
  Current step  : 270000
  Time step     : 1
Per MPI rank memory allocation (min/avg/max) = 16.25 | 16.31 | 16.45 Mbytes
   Step         v_Time          Temp          Press          TotEng         KinEng         PotEng         E_pair         E_bond        E_angle        E_dihed        E_impro         E_long           Lx             Ly             Lz          Density    
    270000   270            302.60724      494.72603      2688.2341      2705.1421     -16.908046     -258.1607       891.37684      1392.4151     -2137.4217      94.882417      0              33.762452      33.762452      33.762452      0.60522198   
    272000   272            307.20377      516.03167      2809.6674      2746.2326      63.434858     -254.10602      937.92318      1417.2876     -2123.5102      85.840344      0              33.662118      33.662118      33.662118      0.61064993   
    274000   274            304.03759      1189.3995      2676.4091      2717.9287     -41.519619     -376.94015      948.12846      1435.5847     -2144.0357      95.743095      0              33.45893       33.45893       33.45893       0.62184264   
    276000   276            286.78237     -502.71471      2583.0751      2563.6765      19.398618     -305.94796      960.22869      1414.3524     -2145.6987      96.464222      0              33.287723      33.287723      33.287723      0.63148694   
    278000   278            294.17182      137.4768       2548.8976      2629.7341     -80.836462     -332.01002      943.3187       1364.1423     -2152.9319      96.644438      0              33.112069      33.112069      33.112069      0.64159016   
    280000   280            305.39141     -246.4535       2718.2029      2730.031      -11.828145     -339.37031      929.68176      1428.8179     -2130.203       99.245413      0              33.185344      33.185344      33.185344      0.63734955   
    282000   282            300.82821      836.82503      2593.329       2689.2385     -95.909488     -341.335        877.71645      1408.0212     -2133.0209      92.708813      0              33.362528      33.362528      33.362528      0.62724876   
    284000   284            301.26333      1176.2026      2684.4175      2693.1283     -8.710809      -226.32784      908.2196       1339.7711     -2137.2734      106.89971      0              33.535024      33.535024      33.535024      0.61761918   
    286000   286            302.16523      505.39972      2809.6394      2701.1907      108.44866     -214.76163      937.99774      1425.8466     -2144.3471      103.71302      0              33.320341      33.320341      33.320341      0.62963423   
    288000   288            304.41979     -69.342125      2659.0277      2721.3453     -62.317537     -289.87906      894.81406      1384.8297     -2143.9739      91.89165       0              33.198413      33.198413      33.198413      0.6365971    
    290000   290            295.04154      368.09897      2785.8065      2637.5089      148.2976      -191.03521      936.68617      1443.6471     -2126.2075      85.206969      0              33.862726      33.862726      33.862726      0.59986135   
Loop time of 30.7385 on 10 procs for 20000 steps with 3000 atoms

Performance: 56.216 ns/day, 0.427 hours/ns, 650.650 timesteps/s, 1.952 Matom-step/s
100.0% CPU use with 10 MPI tasks x 1 OpenMP threads

MPI task timing breakdown:
Section |  min time  |  avg time  |  max time  |%varavg| %total
---------------------------------------------------------------
Pair    | 17.021     | 18.212     | 19.643     |  18.1 | 59.25
Bond    | 4.2174     | 4.4297     | 4.7086     |   7.6 | 14.41
Neigh   | 2.0414     | 2.0814     | 2.1196     |   2.6 |  6.77
Comm    | 3.423      | 5.2334     | 6.4752     |  40.5 | 17.03
Output  | 0.0015344  | 0.0054912  | 0.010119   |   3.6 |  0.02
Modify  | 0.25052    | 0.3019     | 0.35483    |   7.1 |  0.98
Other   |            | 0.4751     |            |       |  1.55

Nlocal:            300 ave         309 max         292 min
Histogram: 2 1 1 1 0 1 0 2 1 1
Nghost:         5331.5 ave        5544 max        5140 min
Histogram: 2 0 1 0 3 0 2 0 1 1
Neighs:        83375.1 ave       91095 max       76192 min
Histogram: 1 0 1 2 3 0 0 1 1 1

Total # of neighbors = 833751
Ave neighs/atom = 277.917
Ave special neighs/atom = 5.4166667
Neighbor list builds = 946
Dangerous builds = 0
write_data ${myid}_NPT${npt}x20ps.dat
write_data PE_IFFDfyS0_NPT${npt}x20ps.dat
write_data PE_IFFDfyS0_NPT9x20ps.dat
System init for write_data ...
Generated 3 of 3 mixed pair_coeff terms from sixthpower/sixthpower mixing rule
shell pigz ${myid}_NPT${npt}x20ps.dat
shell pigz PE_IFFDfyS0_NPT${npt}x20ps.dat
shell pigz PE_IFFDfyS0_NPT9x20ps.dat
if "${npt} > 1" then "shell rm ${myid}_NPT$(v_npt-1)x20ps.dat.gz"
shell rm ${myid}_NPT$(v_npt-1)x20ps.dat.gz
shell rm PE_IFFDfyS0_NPT$(v_npt-1)x20ps.dat.gz
shell rm PE_IFFDfyS0_NPT8x20ps.dat.gz
next npt
jump SELF npt_loop
variable npt loop 50
run 20000 # 20 ps
Generated 3 of 3 mixed pair_coeff terms from sixthpower/sixthpower mixing rule
Setting up Verlet run ...
  Unit style    : real
  Current step  : 290000
  Time step     : 1
Per MPI rank memory allocation (min/avg/max) = 16.25 | 16.31 | 16.45 Mbytes
   Step         v_Time          Temp          Press          TotEng         KinEng         PotEng         E_pair         E_bond        E_angle        E_dihed        E_impro         E_long           Lx             Ly             Lz          Density    
    290000   290            295.04154      368.09897      2785.8065      2637.5089      148.2976      -191.03521      936.68617      1443.6471     -2126.2075      85.206969      0              33.862726      33.862726      33.862726      0.59986135   
    292000   292            306.73331     -839.32415      2772.4062      2742.0269      30.379266     -280.55141      931.56588      1435.9248     -2146.9505      90.390488      0              33.49698       33.49698       33.49698       0.61972595   
    294000   294            295.31293     -145.91537      2782.1198      2639.935       142.18481     -198.43922      946.85291      1452.0672     -2159.3047      101.00859      0              34.253715      34.253715      34.253715      0.57955357   
    296000   296            290.27647     -1466.9744      2545.6267      2594.9118     -49.285077     -409.9694       978.58018      1419.3034     -2131.3933      94.194053      0              33.788123      33.788123      33.788123      0.60384356   
    298000   298            296.50754      286.70415      2703.7455      2650.6141      53.131372     -175.49791      909.5486       1375.4254     -2135.4183      79.073578      0              32.97429       32.97429       32.97429       0.64966624   
    300000   300            302.72857      266.60942      2592.8873      2706.2267     -113.33942     -352.09277      942.8896       1348.3531     -2140.3829      87.893577      0              33.010646      33.010646      33.010646      0.64752207   
    302000   302            294.65992     -157.08351      2543.6052      2634.0974     -90.492245     -355.3275       900.27418      1391.9992     -2112.561       85.122893      0              32.697102      32.697102      32.697102      0.66632924   
    304000   304            304.96541     -378.72378      2728.0203      2726.2229      1.7974065     -275.18169      898.9145       1427.7777     -2159.2444      109.53137      0              33.29359       33.29359       33.29359       0.63115316   
    306000   306            294.08558     -659.76468      2682.6951      2628.9631      53.731952     -273.60709      933.92729      1466.718      -2166.8595      93.553234      0              33.132311      33.132311      33.132311      0.64041491   
    308000   308            300.87685      744.35179      2589.1549      2689.6733     -100.51841     -352.47379      915.97467      1375.7951     -2132.074       92.259615      0              33.029889      33.029889      33.029889      0.64639101   
    310000   310            303.96812      602.88346      2535.9109      2717.3076     -181.39672     -379.1929       898.77537      1359.3227     -2156.7068      96.404959      0              33.677224      33.677224      33.677224      0.60982862   
Loop time of 32.4023 on 10 procs for 20000 steps with 3000 atoms

Performance: 53.329 ns/day, 0.450 hours/ns, 617.239 timesteps/s, 1.852 Matom-step/s
100.0% CPU use with 10 MPI tasks x 1 OpenMP threads

MPI task timing breakdown:
Section |  min time  |  avg time  |  max time  |%varavg| %total
---------------------------------------------------------------
Pair    | 16.789     | 18.188     | 19.725     |  20.3 | 56.13
Bond    | 4.1879     | 4.4295     | 4.8153     |   9.3 | 13.67
Neigh   | 2.1533     | 2.1931     | 2.2312     |   2.5 |  6.77
Comm    | 4.7329     | 6.8133     | 8.5522     |  42.1 | 21.03
Output  | 0.0014841  | 0.0055118  | 0.010113   |   3.6 |  0.02
Modify  | 0.24947    | 0.29716    | 0.34458    |   6.6 |  0.92
Other   |            | 0.4759     |            |       |  1.47

Nlocal:            300 ave         332 max         274 min
Histogram: 2 2 1 0 0 1 1 1 1 1
Nghost:         5376.1 ave        5586 max        5134 min
Histogram: 1 2 2 0 0 0 0 1 2 2
Neighs:        84735.9 ave       92742 max       71740 min
Histogram: 1 1 0 2 0 0 0 2 1 3

Total # of neighbors = 847359
Ave neighs/atom = 282.453
Ave special neighs/atom = 5.4166667
Neighbor list builds = 949
Dangerous builds = 0
write_data ${myid}_NPT${npt}x20ps.dat
write_data PE_IFFDfyS0_NPT${npt}x20ps.dat
write_data PE_IFFDfyS0_NPT10x20ps.dat
System init for write_data ...
Generated 3 of 3 mixed pair_coeff terms from sixthpower/sixthpower mixing rule
shell pigz ${myid}_NPT${npt}x20ps.dat
shell pigz PE_IFFDfyS0_NPT${npt}x20ps.dat
shell pigz PE_IFFDfyS0_NPT10x20ps.dat
if "${npt} > 1" then "shell rm ${myid}_NPT$(v_npt-1)x20ps.dat.gz"
shell rm ${myid}_NPT$(v_npt-1)x20ps.dat.gz
shell rm PE_IFFDfyS0_NPT$(v_npt-1)x20ps.dat.gz
shell rm PE_IFFDfyS0_NPT9x20ps.dat.gz
next npt
jump SELF npt_loop
variable npt loop 50
run 20000 # 20 ps
Generated 3 of 3 mixed pair_coeff terms from sixthpower/sixthpower mixing rule
Setting up Verlet run ...
  Unit style    : real
  Current step  : 310000
  Time step     : 1
Per MPI rank memory allocation (min/avg/max) = 16.25 | 16.31 | 16.45 Mbytes
   Step         v_Time          Temp          Press          TotEng         KinEng         PotEng         E_pair         E_bond        E_angle        E_dihed        E_impro         E_long           Lx             Ly             Lz          Density    
    310000   310            303.96812      602.88346      2535.9109      2717.3076     -181.39672     -379.1929       898.77537      1359.3227     -2156.7068      96.404959      0              33.677224      33.677224      33.677224      0.60982862   
    312000   312            297.61474     -392.75196      2747.7148      2660.5119      87.202844     -169.08891      944.75992      1364.2584     -2147.6571      94.930572      0              33.712682      33.712682      33.712682      0.60790644   
    314000   314            304.15082      1098.8685      2653.5832      2718.9409     -65.357651     -333.76651      915.1691       1410.8572     -2148.786       91.168511      0              33.052402      33.052402      33.052402      0.64507106   
    316000   316            303.61838      165.97498      2795.7883      2714.1811      81.607157     -122.57258      906.09833      1325.705      -2122.8794      95.255805      0              33.565907      33.565907      33.565907      0.615916     
    318000   318            300.84658      297.63561      2862.1191      2689.4028      172.71636     -136.03833      952.16162      1414.0761     -2152.6124      95.129314      0              33.39586       33.39586       33.39586       0.62537247   
    320000   320            296.45432      1336.3215      2739.0914      2650.1384      88.952962     -178.09618      962.65644      1329.0723     -2119.2851      94.605482      0              32.799259      32.799259      32.799259      0.66012254   
    322000   322            302.01052      100.95764      2783.7444      2699.8078      83.93662      -240.45766      928.86857      1456.775      -2152.6743      91.425045      0              33.267425      33.267425      33.267425      0.63264357   
    324000   324            304.69473     -384.9495       2689.1751      2723.8031     -34.628035     -365.98239      946.53226      1398.3714     -2105.2842      91.73489       0              33.001608      33.001608      33.001608      0.64805424   
    326000   326            299.98256      722.76019      2725.4431      2681.6789      43.764241     -202.67919      918.0916       1366.6714     -2124.7049      86.385286      0              32.897925      32.897925      32.897925      0.65420086   
    328000   328            299.06234      138.32216      2560.3977      2673.4527     -113.05497     -378.12266      924.47679      1354.8255     -2104.4999      90.265284      0              32.823179      32.823179      32.823179      0.65868034   
    330000   330            302.24832     -994.47233      2697.3811      2701.9335     -4.5523799     -341.3501       964.31944      1428.9103     -2133.0063      76.574318      0              32.735135      32.735135      32.735135      0.66400939   
Loop time of 31.491 on 10 procs for 20000 steps with 3000 atoms

Performance: 54.873 ns/day, 0.437 hours/ns, 635.103 timesteps/s, 1.905 Matom-step/s
100.0% CPU use with 10 MPI tasks x 1 OpenMP threads

MPI task timing breakdown:
Section |  min time  |  avg time  |  max time  |%varavg| %total
---------------------------------------------------------------
Pair    | 17.16      | 18.445     | 20.745     |  25.3 | 58.57
Bond    | 4.2074     | 4.4296     | 4.6868     |   6.9 | 14.07
Neigh   | 2.0625     | 2.103      | 2.1422     |   2.7 |  6.68
Comm    | 2.9955     | 5.7313     | 7.3149     |  54.9 | 18.20
Output  | 0.0015304  | 0.0055184  | 0.010024   |   3.6 |  0.02
Modify  | 0.2522     | 0.29714    | 0.35068    |   7.0 |  0.94
Other   |            | 0.4798     |            |       |  1.52

Nlocal:            300 ave         311 max         290 min
Histogram: 1 1 0 2 3 1 0 0 0 2
Nghost:         5710.4 ave        5791 max        5613 min
Histogram: 1 0 1 1 1 2 0 1 2 1
Neighs:        92142.8 ave       97607 max       85280 min
Histogram: 1 0 2 1 0 1 1 2 0 2

Total # of neighbors = 921428
Ave neighs/atom = 307.14267
Ave special neighs/atom = 5.4166667
Neighbor list builds = 943
Dangerous builds = 0
write_data ${myid}_NPT${npt}x20ps.dat
write_data PE_IFFDfyS0_NPT${npt}x20ps.dat
write_data PE_IFFDfyS0_NPT11x20ps.dat
System init for write_data ...
Generated 3 of 3 mixed pair_coeff terms from sixthpower/sixthpower mixing rule
shell pigz ${myid}_NPT${npt}x20ps.dat
shell pigz PE_IFFDfyS0_NPT${npt}x20ps.dat
shell pigz PE_IFFDfyS0_NPT11x20ps.dat
if "${npt} > 1" then "shell rm ${myid}_NPT$(v_npt-1)x20ps.dat.gz"
shell rm ${myid}_NPT$(v_npt-1)x20ps.dat.gz
shell rm PE_IFFDfyS0_NPT$(v_npt-1)x20ps.dat.gz
shell rm PE_IFFDfyS0_NPT10x20ps.dat.gz
next npt
jump SELF npt_loop
variable npt loop 50
run 20000 # 20 ps
Generated 3 of 3 mixed pair_coeff terms from sixthpower/sixthpower mixing rule
Setting up Verlet run ...
  Unit style    : real
  Current step  : 330000
  Time step     : 1
Per MPI rank memory allocation (min/avg/max) = 16.25 | 16.31 | 16.45 Mbytes
[...]
   1348000   1348           300.07526      7567.757       2922.5942      2682.5075      240.08664     -37.956682      890.56276      1420.1497     -2127.3573      94.688137      0              28.687452      28.687452      28.687452      0.98659905   
   1350000   1350           298.98384      8229.5218      2861.2892      2672.7509      188.53829     -137.53477      921.09697      1460.216      -2154.1051      98.865236      0              28.647452      28.647452      28.647452      0.99073755   
   1352000   1352           296.87537      9199.4688      2857.6953      2653.9023      203.79294     -38.43395       934.5364       1360.599      -2146.3426      93.434078      0              28.607452      28.607452      28.607452      0.99489922   
   1354000   1354           303.43272      10572.773      2735.2451      2712.5214      22.723634     -189.586        891.97722      1398.2513     -2177.3355      99.416679      0              28.567452      28.567452      28.567452      0.99908423   
   1356000   1356           295.79191      9019.0344      2799.245       2644.2168      155.02812     -179.06644      912.29814      1458.2585     -2130.6152      94.153137      0              28.527452      28.527452      28.527452      1.0032927    
   1358000   1358           299.60995      7876.4918      2681.966       2678.3479      3.6180782     -242.74225      899.36424      1375.5405     -2121.6742      93.129793      0              28.487452      28.487452      28.487452      1.0075249    
   1360000   1360           294.8829       9792.1632      2643.0056      2636.0907      6.9148887     -304.60418      906.12644      1478.3494     -2173.9932      101.03642      0              28.447452      28.447452      28.447452      1.011781     
   1362000   1362           301.57832      8968.3755      2753.8977      2695.9441      57.953541     -163.70956      914.02188      1350.5908     -2141.2468      98.297237      0              28.407453      28.407453      28.407453      1.016061     
   1364000   1364           293.83091      11099.52       2760.746       2626.6865      134.05943     -94.25712       906.95673      1384.5618     -2159.6899      96.487882      0              28.367453      28.367453      28.367453      1.0203652    
   1366000   1366           305.96543      10146.204      2860.7738      2735.1624      125.61131     -121.7527       886.09615      1425.0367     -2158.3225      94.553617      0              28.327453      28.327453      28.327453      1.0246937    
   1368000   1368           298.725        10506.57       2698.449       2670.437       28.012044     -234.9724       940.91257      1399.5374     -2162.0794      84.613903      0              28.287453      28.287453      28.287453      1.0290468    
   1370000   1370           292.23023      10690.596      2817.3753      2612.3773      204.99797     -25.419863      902.1271       1384.7261     -2160.6548      104.21937      0              28.247453      28.247453      28.247453      1.0334246    
   1372000   1372           296.62941      10945.052      2648.9646      2651.7036     -2.7389182     -218.96607      909.69906      1373.4634     -2164.5767      97.641343      0              28.207453      28.207453      28.207453      1.0378272    
   1374000   1374           304.96667      14353.336      2755.9464      2726.2341      29.712347     -213.48591      855.35925      1459.6317     -2164.0429      92.250177      0              28.167453      28.167453      28.167453      1.0422549    
   1376000   1376           293.5101       11854.933      2742.9825      2623.8186      119.16392     -123.14847      878.04272      1407.4301     -2131.2969      88.136449      0              28.127453      28.127453      28.127453      1.0467077    
   1378000   1378           302.3146       14114.451      2690.5265      2702.5261     -11.999612     -217.22349      882.28402      1380.832      -2148.4633      90.571178      0              28.087453      28.087453      28.087453      1.051186     
   1380000   1380           301.47285      12645.852      2707.9042      2695.0013      12.902867     -255.20202      953.71018      1373.9817     -2141.6959      82.10893       0              28.047453      28.047453      28.047453      1.0556899    
   1382000   1382           305.76609      12760.24       2885.0179      2733.3805      151.63744     -51.798352      899.57594      1371.4953     -2155.184       87.548549      0              28.007453      28.007453      28.007453      1.0602196    
   1384000   1384           294.71399      13745.131      2569.0053      2634.5808     -65.575521     -319.35853      937.11653      1375.9156     -2144.8986      85.649417      0              27.967453      27.967453      27.967453      1.0647752    
   1386000   1386           307.49738      11179.682      2972.484       2748.8572      223.62673     -48.681643      919.63045      1414.9355     -2147.4496      85.191977      0              27.927453      27.927453      27.927453      1.0693569    
   1388000   1388           300.36218      11583.08       2731.6049      2685.0725      46.532401     -186.52807      863.96116      1445.0932     -2162.7467      86.752815      0              27.887453      27.887453      27.887453      1.0739649    
   1390000   1390           300.49587      14939.442      2645.1589      2686.2676     -41.10872      -276.73852      889.28997      1408.1618     -2145.6078      83.785784      0              27.847453      27.847453      27.847453      1.0785995    
   1392000   1392           302.86731      13360.92       2817.6885      2707.467       110.22151     -173.96299      903.47697      1432.5711     -2153.6786      101.81503      0              27.807453      27.807453      27.807453      1.0832608    
   1394000   1394           311.96988      15381.148      2890.6111      2788.8389      101.77216     -149.79844      893.75361      1426.0475     -2171.1178      102.8873       0              27.767453      27.767453      27.767453      1.087949     
   1396000   1396           299.50049      13656.977      2683.0282      2677.3695      5.6587001     -240.35872      931.55725      1396.4698     -2185.4069      103.39726      0              27.727453      27.727453      27.727453      1.0926642    
   1398000   1398           300.92735      18663.457      2832.7564      2690.1248      142.63166     -110.79551      903.71368      1383.7191     -2122.9805      88.974956      0              27.687453      27.687453      27.687453      1.0974068    
   1400000   1400           308.88995      14864.058      2849.2504      2761.3061      87.944318     -207.44199      935.74527      1405.9825     -2128.6885      82.347044      0              27.647453      27.647453      27.647453      1.1021768    
   1402000   1402           298.12025      14174.48       2671.8649      2665.0309      6.8340112     -266.15209      932.62369      1372.083      -2124.9612      93.240649      0              27.607453      27.607453      27.607453      1.1069745    
   1404000   1404           299.39832      19963.908      2508.5107      2676.4561     -167.94538     -420.80435      911.27552      1414.096      -2166.7624      94.24987       0              27.567453      27.567453      27.567453      1.1118001    
   1406000   1406           304.54293      20079.002      2748.8993      2722.4461      26.453198     -306.10093      904.03539      1490.2667     -2163.1877      101.43974      0              27.527453      27.527453      27.527453      1.1166538    
   1408000   1408           296.29005      19462.079      2597.3362      2648.6699     -51.333658     -305.09101      932.77304      1403.5522     -2183.5327      100.96485      0              27.487453      27.487453      27.487453      1.1215358    
   1410000   1410           298.60923      17211.036      2665.8939      2669.4021     -3.5082012     -259.59061      919.03765      1382.9927     -2139.749       93.80107       0              27.447453      27.447453      27.447453      1.1264463    
   1412000   1412           308.13829      20690.445      2741.7848      2754.5866     -12.801777     -275.12197      890.90217      1418.0261     -2141.3608      94.752704      0              27.407453      27.407453      27.407453      1.1313855    
   1414000   1414           296.10668      21303.599      2665.9424      2647.0307      18.911678     -257.79272      892.98224      1446.8169     -2161.0702      97.975502      0              27.367453      27.367453      27.367453      1.1363536    
   1416000   1416           299.64042      21575.131      2762.2868      2678.6203      83.666497     -168.57226      898.73597      1414.8436     -2152.9069      91.566065      0              27.327453      27.327453      27.327453      1.1413509    
   1418000   1418           297.15976      21128.273      2429.6186      2656.4446     -226.82599     -435.96062      883.42184      1395.1098     -2149.8683      80.471307      0              27.287453      27.287453      27.287453      1.1463775    
   1420000   1420           305.98847      22436.319      2745.3206      2735.3684      9.9521957     -265.41802      889.76953      1418.947      -2137.2724      103.926        0              27.247453      27.247453      27.247453      1.1514336    
   1422000   1422           295.86416      20928.948      2542.0088      2644.8626     -102.85383     -393.52522      909.90077      1447.3334     -2168.6835      102.12069      0              27.207453      27.207453      27.207453      1.1565196    
   1424000   1424           296.74351      25094.947      2649.148       2652.7236     -3.5756121     -229.39596      907.16098      1364.711      -2147.0417      100.99011      0              27.167453      27.167453      27.167453      1.1616355    
   1426000   1426           303.93464      21871.81       2660.5962      2717.0083     -56.412161     -315.30308      906.09289      1426.1505     -2172.8465      99.494051      0              27.127453      27.127453      27.127453      1.1667817    
   1428000   1428           299.271        21601.115      2667.7143      2675.3179     -7.6035963     -228.30406      853.59315      1400.0941     -2137.7345      104.74773      0              27.087453      27.087453      27.087453      1.1719582    
   1430000   1430           297.25828      23556.591      2591.288       2657.3253     -66.037316     -297.23194      889.40751      1392.6608     -2143.2375      92.363815      0              27.047453      27.047453      27.047453      1.1771655    
   1432000   1432           302.75554      23798.864      2707.0742      2706.4678      0.60638278    -284.67533      923.4553       1430.1979     -2168.3505      99.978984      0              27.007453      27.007453      27.007453      1.1824036    
   1434000   1434           296.64998      26801.152      2518.1061      2651.8875     -133.78132     -328.25587      909.44778      1357.9971     -2158.08        85.109725      0              26.967453      26.967453      26.967453      1.1876729    
   1436000   1436           296.64473      26786.43       2560.5166      2651.8405     -91.323904     -320.24464      879.04723      1403.8512     -2138.1264      84.148712      0              26.927453      26.927453      26.927453      1.1929736    
   1438000   1438           305.45839      26929.754      2630.9636      2730.6298     -99.666187     -341.64072      926.76216      1390.607      -2165.2728      89.878101      0              26.887453      26.887453      26.887453      1.1983058    
   1440000   1440           294.18964      28044.138      2620.2432      2629.8934     -9.6502442     -208.51746      903.24657      1376.3824     -2167.5541      86.7924        0              26.847453      26.847453      26.847453      1.2036698    
   1442000   1442           295.2057       30315.021      2542.4699      2638.9764     -96.506549     -359.3266       926.88907      1407.1751     -2170.3275      99.083306      0              26.807453      26.807453      26.807453      1.2090659    
   1444000   1444           301.50728      29536.342      2743.3266      2695.3091      48.017519     -211.27526      912.02098      1386.9809     -2138.1721      98.462987      0              26.767453      26.767453      26.767453      1.2144943    
   1446000   1446           291.15587      31058.254      2714.4737      2602.7732      111.70051     -145.63731      912.56615      1403.695      -2160.6218      101.69845      0              26.727453      26.727453      26.727453      1.2199553    
   1448000   1448           299.90018      28023.064      2620.79        2680.9425     -60.152458     -271.03442      875.55236      1385.905      -2135.5965      85.021028      0              26.687453      26.687453      26.687453      1.2254491    
   1450000   1450           305.66272      34170.436      2817.0782      2732.4564      84.621789     -151.38019      869.97575      1414.5358     -2138.5559      90.046365      0              26.647453      26.647453      26.647453      1.2309758    
   1452000   1452           306.33089      34230.241      2857.6813      2738.4295      119.25186     -149.62233      912.13771      1432.5637     -2173.5926      97.765389      0              26.607453      26.607453      26.607453      1.2365359    
   1454000   1454           299.36998      31581.885      2666.6922      2676.2028     -9.5106091     -196.96519      884.89973      1394.4346     -2185.5894      93.709713      0              26.567453      26.567453      26.567453      1.2421295    
   1456000   1456           303.09236      34702.4        2781.8154      2709.4788      72.336658     -202.31992      911.60805      1425.6215     -2142.7545      80.181507      0              26.527453      26.527453      26.527453      1.2477569    
   1458000   1458           300.3197       35880.22       2900.9168      2684.6927      216.22407     -52.342662      920.15013      1419.2355     -2159.9664      89.147501      0              26.487453      26.487453      26.487453      1.2534183    
   1460000   1460           302.19086      37939.058      2707.9106      2701.4199      6.4907236     -241.59138      914.83833      1394.1157     -2152.8884      92.016504      0              26.447453      26.447453      26.447453      1.2591141    
   1460310   1460.31        302.38953      35320.661      2773.3066      2703.1959      70.110718     -195.2867       903.47696      1418.4365     -2146.7075      90.191433      0              26.441253      26.441253      26.441253      1.26         
Loop time of 703.826 on 10 procs for 350310 steps with 3000 atoms

Performance: 43.003 ns/day, 0.558 hours/ns, 497.722 timesteps/s, 1.493 Matom-step/s
100.0% CPU use with 10 MPI tasks x 1 OpenMP threads

MPI task timing breakdown:
Section |  min time  |  avg time  |  max time  |%varavg| %total
---------------------------------------------------------------
Pair    | 424.87     | 454.45     | 516.04     | 116.1 | 64.57
Bond    | 70.245     | 71.513     | 74.715     |  15.4 | 10.16
Neigh   | 45.687     | 46.525     | 47.346     |  11.9 |  6.61
Comm    | 49.269     | 117.91     | 151.48     | 252.1 | 16.75
Output  | 0.027506   | 0.10053    | 0.18409    |  15.3 |  0.01
Modify  | 2.4705     | 3.3103     | 4.1159     |  33.5 |  0.47
Other   |            | 10.02      |            |       |  1.42

Nlocal:            300 ave         316 max         281 min
Histogram: 1 0 0 1 2 2 1 1 1 1
Nghost:         8626.3 ave        8676 max        8584 min
Histogram: 2 1 1 1 0 2 0 1 0 2
Neighs:         175270 ave      194850 max      163965 min
Histogram: 1 3 1 1 1 1 1 0 0 1

Total # of neighbors = 1752701
Ave neighs/atom = 584.23367
Ave special neighs/atom = 5.4166667
Neighbor list builds = 16435
Dangerous builds = 0
write_data ${myid}.dat
write_data PE_IFFDfyS0.dat
System init for write_data ...
Generated 3 of 3 mixed pair_coeff terms from sixthpower/sixthpower mixing rule
shell pigz ${myid}.dat
shell pigz PE_IFFDfyS0.dat
unfix 3
unfix 2
unfix 1

#Run density profile
fix 1 all nvt temp 500 500 1000
compute x all chunk/atom bin/1d x lower $(lx/20) units box
compute x all chunk/atom bin/1d x lower 1.3220626527776500048 units box
compute y all chunk/atom bin/1d y lower $(ly/20) units box
compute y all chunk/atom bin/1d y lower 1.3220626527776500048 units box
compute z all chunk/atom bin/1d z lower $(lz/20) units box
compute z all chunk/atom bin/1d z lower 1.3220626527776500048 units box
fix 2 all ave/chunk 1000 1 1000 x density/mass file ${myid}_densityprofile_x.txt
fix 2 all ave/chunk 1000 1 1000 x density/mass file PE_IFFDfyS0_densityprofile_x.txt
fix 3 all ave/chunk 1000 1 1000 y density/mass file ${myid}_densityprofile_y.txt
fix 3 all ave/chunk 1000 1 1000 y density/mass file PE_IFFDfyS0_densityprofile_y.txt
fix 4 all ave/chunk 1000 1 1000 z density/mass file ${myid}_densityprofile_z.txt
fix 4 all ave/chunk 1000 1 1000 z density/mass file PE_IFFDfyS0_densityprofile_z.txt
run                1000 # 1 ps
Generated 3 of 3 mixed pair_coeff terms from sixthpower/sixthpower mixing rule
Setting up Verlet run ...
  Unit style    : real
  Current step  : 1460310
  Time step     : 1
Per MPI rank memory allocation (min/avg/max) = 16.65 | 16.72 | 16.86 Mbytes
   Step         v_Time          Temp          Press          TotEng         KinEng         PotEng         E_pair         E_bond        E_angle        E_dihed        E_impro         E_long           Lx             Ly             Lz          Density    
   1460310   1460.31        302.38953      35323.289      2772.9509      2703.1959      69.754981     -195.64519      903.47995      1418.4388     -2146.71        90.191433      0              26.441253      26.441253      26.441253      1.26         
   1461310   1461.31        323.43598      36858.691      3295.5021      2891.3395      404.1626       17.020563      925.45808      1505.945      -2137.8123      93.551205      0              26.441253      26.441253      26.441253      1.26         
Loop time of 2.7239 on 10 procs for 1000 steps with 3000 atoms

Performance: 31.719 ns/day, 0.757 hours/ns, 367.121 timesteps/s, 1.101 Matom-step/s
100.0% CPU use with 10 MPI tasks x 1 OpenMP threads

MPI task timing breakdown:
Section |  min time  |  avg time  |  max time  |%varavg| %total
---------------------------------------------------------------
Pair    | 1.6905     | 1.8332     | 2.1122     |   9.2 | 67.30
Bond    | 0.19064    | 0.20452    | 0.23055    |   2.4 |  7.51
Neigh   | 0.167      | 0.16995    | 0.17289    |   0.7 |  6.24
Comm    | 0.15231    | 0.47159    | 0.61417    |  19.7 | 17.31
Output  | 4.2707e-05 | 5.4605e-05 | 0.00016014 |   0.0 |  0.00
Modify  | 0.0066306  | 0.009191   | 0.011774   |   2.1 |  0.34
Other   |            | 0.0354     |            |       |  1.30

Nlocal:            300 ave         310 max         289 min
Histogram: 1 1 1 2 0 1 1 0 0 3
Nghost:         8615.5 ave        8703 max        8506 min
Histogram: 1 0 1 0 3 1 1 1 0 2
Neighs:         175204 ave      185954 max      168464 min
Histogram: 3 1 2 1 0 0 0 1 0 2

Total # of neighbors = 1752044
Ave neighs/atom = 584.01467
Ave special neighs/atom = 5.4166667
Neighbor list builds = 46
Dangerous builds = 0
Total wall time: 0:39:49

+------------------------------------------------------------------------+
Memory usage reported in GB
                       % of     user     user     user    total    total
Node                  limit      max    limit  current  current     phys
x1300c5s1b0n2          0.10     0.33   335.00     0.20    11.29   376.95
Memory summary:
		min    0.33 GB
		max    0.33 GB
		ave    0.33 GB
+------------------------------------------------------------------------+

