HEADER,  PE_PreReaction.pdb  read w/ pdb2lmp > atom_typing v1.11 / 14 April 2025 w/PCFF-IFF atom-types > all2lmp: v1.22 / 14 April 2025  Class: 2; Reduce = [4,4]; BondingIDs = [8,25,8,25]

48 atoms
46 bonds
84 angles
114 dihedrals
52 impropers

3 atom types
4 bond types
7 angle types
7 dihedral types
5 improper types

-12.132187500 12.132812500 xlo xhi
-2.521979167 2.522020833 ylo yhi
-1.000000000 1.000000000 zlo zhi

Masses

1   12.01115000  #  c2   
2   12.01115000  #  c=   
3    1.00797000  #  hc   

Pair Coeffs  # lj/class2/coul/long

1         0.05400000      4.01000000 #  c2   
2         0.06400000      3.90000000 #  c=   
3         0.02000000      2.30000000 #  hc   

Bond Coeffs  # class2

1         1.53000000    299.67000000   -501.77000000    679.81000000 #  c2          c2   
2         1.50600000    312.35170000   -582.18610000    339.89710000 #  c2          c=   
3         1.10100000    345.00000000   -691.89000000    844.60000000 #  c2          hc   
4         1.08830000    365.76790000   -725.54040000    781.66210000 #  c=          hc   

Angle Coeffs  # class2

1       112.67000000     39.51600000     -7.44300000     -9.55830000 #  c2         c2         c2   
2       111.76000000     45.70260000    -10.63960000     -9.91210000 #  c2         c2         c=   
3       110.77000000     41.45300000    -10.60400000      5.12900000 #  c2         c2         hc   
4       117.27000000     30.09440000     -8.08260000     -8.67810000 #  c2         c=         hc   
5       110.06000000     41.27840000    -14.29630000      5.22290000 #  c=         c2         hc   
6       107.66000000     39.64100000    -12.92100000     -2.43180000 #  hc         c2         hc   
7       115.49000000     29.63630000    -12.48530000     -6.22180000 #  hc         c=         hc   

Dihedral Coeffs  # class2

1         0.00000000      0.00000000      0.05140000      0.00000000     -0.14300000      0.00000000 #  c2         c2        c2         c2   
2         0.08830000      0.00000000      0.00000000      0.00000000     -0.01980000      0.00000000 #  c2         c2        c2         c=   
3         0.00000000      0.00000000      0.00000000      0.00000000     -0.11660000      0.00000000 #  c=         c2        c2         hc   
4        -0.14320000      0.00000000      0.06170000      0.00000000     -0.10830000      0.00000000 #  hc         c2        c2         hc   
5         0.00000000      0.00000000      0.03160000      0.00000000     -0.16810000      0.00000000 #  c2         c2        c2         hc   
6        -0.24330000      0.00000000      0.00000000      0.00000000     -0.32810000      0.00000000 #  c2         c2        c=         hc   
7        -0.11430000      0.00000000      0.00000000      0.00000000     -0.13490000      0.00000000 #  hc         c2        c=         hc   

Improper Coeffs  # class2

1         2.05680000      0.00000000 #  c2         c=        hc        hc      nb==3   
2         0.00000000      0.00000000 #  c2         c2        c2        hc      nb!=3   
3         0.00000000      0.00000000 #  c2         c2        c=        hc      nb!=3   
4         0.00000000      0.00000000 #  c2         c2        hc        hc      nb!=3   
5         0.00000000      0.00000000 #  c=         c2        hc        hc      nb!=3   

BondBond Coeffs  # class2

1         0.00000000      1.53000000      1.53000000 #  c2         c2         c2   
2         7.78270000      1.53000000      1.50600000 #  c2         c2         c=   
3         3.38720000      1.53000000      1.10100000 #  c2         c2         hc   
4         3.43940000      1.50600000      1.08830000 #  c2         c=         hc   
5         9.99220000      1.50600000      1.10100000 #  c=         c2         hc   
6         5.33160000      1.10100000      1.10100000 #  hc         c2         hc   
7         4.85060000      1.08830000      1.08830000 #  hc         c=         hc   

BondAngle Coeffs  # class2

1         8.01600000      8.01600000      1.53000000      1.53000000 #  c2         c2         c2   
2        15.98180000     18.97790000      1.53000000      1.50600000 #  c2         c2         c=   
3        20.75400000     11.42100000      1.53000000      1.10100000 #  c2         c2         hc   
4        17.64520000     15.34920000      1.50600000      1.08830000 #  c2         c=         hc   
5        20.87670000     14.27410000      1.50600000      1.10100000 #  c=         c2         hc   
6        18.10300000     18.10300000      1.10100000      1.10100000 #  hc         c2         hc   
7        17.97950000     17.97950000      1.08830000      1.08830000 #  hc         c=         hc   

AngleAngleTorsion Coeffs  # class2

1       -22.04500000    112.67000000    112.67000000 #  c2         c2        c2         c2   
2       -27.91270000    112.67000000    111.76000000 #  c2         c2        c2         c=   
3       -18.37170000    111.76000000    110.77000000 #  c=         c2        c2         hc   
4       -12.56400000    110.77000000    110.77000000 #  hc         c2        c2         hc   
5       -16.16400000    112.67000000    110.77000000 #  c2         c2        c2         hc   
6       -16.89930000    111.76000000    117.27000000 #  c2         c2        c=         hc   
7       -10.95120000    110.06000000    117.27000000 #  hc         c2        c=         hc   

EndBondTorsion Coeffs  # class2

1        -0.07320000      0.00000000      0.00000000     -0.07320000      0.00000000      0.00000000      1.53000000      1.53000000 #  c2         c2        c2         c2   
2        -0.60280000      0.00000000      0.76750000      1.03560000      0.00000000      0.05060000      1.53000000      1.50600000 #  c2         c2        c2         c=   
3         0.98560000      0.00000000     -0.08640000      0.19540000      0.00000000     -0.08710000      1.50600000      1.10100000 #  c=         c2        c2         hc   
4         0.21300000      0.31200000      0.07770000      0.21300000      0.31200000      0.07770000      1.10100000      1.10100000 #  hc         c2        c2         hc   
5         0.24860000      0.24220000     -0.09250000      0.08140000      0.05910000      0.22190000      1.53000000      1.10100000 #  c2         c2        c2         hc   
6         0.18520000      0.00000000      0.59060000      1.17300000      0.00000000     -0.05820000      1.53000000      1.08830000 #  c2         c2        c=         hc   
7         0.22120000      0.00000000      0.09150000      0.59340000      0.00000000      0.04240000      1.10100000      1.08830000 #  hc         c2        c=         hc   

MiddleBondTorsion Coeffs  # class2

1       -17.78700000     -7.18770000      0.00000000      1.53000000 #  c2         c2        c2         c2   
2        -2.24080000      0.00000000     -5.48700000      1.53000000 #  c2         c2        c2         c=   
3        -5.01130000      0.00000000      0.58950000      1.53000000 #  c=         c2        c2         hc   
4       -14.26100000     -0.53220000     -0.48640000      1.53000000 #  hc         c2        c2         hc   
5       -14.87900000     -3.65810000     -0.31380000      1.53000000 #  c2         c2        c2         hc   
6         1.28140000      0.00000000     -1.10220000      1.50600000 #  c2         c2        c=         hc   
7         1.87300000      0.00000000     -0.37020000      1.50600000 #  hc         c2        c=         hc   

BondBond13 Coeffs  # class2

1         0.00000000      1.53000000      1.53000000 #  c2         c2        c2         c2   
2         0.00000000      1.53000000      1.50600000 #  c2         c2        c2         c=   
3         0.00000000      1.50600000      1.10100000 #  c=         c2        c2         hc   
4         0.00000000      1.10100000      1.10100000 #  hc         c2        c2         hc   
5         0.00000000      1.53000000      1.10100000 #  c2         c2        c2         hc   
6         0.00000000      1.53000000      1.08830000 #  c2         c2        c=         hc   
7         0.00000000      1.10100000      1.08830000 #  hc         c2        c=         hc   

AngleTorsion Coeffs  # class2

1         0.38860000     -0.31390000      0.13890000      0.38860000     -0.31390000      0.13890000    112.67000000    112.67000000 #  c2         c2        c2         c2   
2         2.40270000      0.00000000      0.00000000      1.15590000      0.00000000     -1.29000000    112.67000000    111.76000000 #  c2         c2        c2         c=   
3         0.60830000      0.00000000      0.00000000     -0.87140000      0.00000000      0.00000000    111.76000000    110.77000000 #  c=         c2        c2         hc   
4        -0.80850000      0.55690000     -0.24660000     -0.80850000      0.55690000     -0.24660000    110.77000000    110.77000000 #  hc         c2        c2         hc   
5        -0.24540000      0.00000000     -0.11360000      0.31130000      0.45160000     -0.19880000    112.67000000    110.77000000 #  c2         c2        c2         hc   
6         0.53110000      0.00000000      0.00000000     -0.91720000      0.00000000      0.00000000    111.76000000    117.27000000 #  c2         c2        c=         hc   
7         1.90610000      0.00000000      0.00000000     -0.06770000      0.00000000      0.00000000    110.06000000    117.27000000 #  hc         c2        c=         hc   

AngleAngle Coeffs  # class2

1         0.00000000      0.00000000      0.00000000    117.27000000    115.49000000    117.27000000 #  c2         c=        hc        hc      nb==3   
2        -1.31990000     -1.31990000      0.11840000    112.67000000    110.77000000    110.77000000 #  c2         c2        c2        hc      nb!=3   
3         0.97470000     -1.46390000      4.19410000    111.76000000    110.77000000    110.06000000 #  c2         c2        c=        hc      nb!=3   
4         0.27380000     -0.48250000      0.27380000    110.77000000    110.77000000    107.66000000 #  c2         c2        hc        hc      nb!=3   
5        -0.11410000     -8.24640000     -0.11410000    110.06000000    110.06000000    107.66000000 #  c=         c2        hc        hc      nb!=3   

Atoms # full

  1     1   2   -0.253600   -10.732187500    0.953020833     0.000000000      0    0    0 #  c=/C
  2     1   1   -0.106000   -9.363187500     0.247020833     0.000000000      0    0    0 #  c2/C
  3     1   1   -0.106000   -7.997187500     0.957020833     0.000000000      0    0    0 #  c2/C
  4     1   1   -0.106000   -6.628187500     0.250020833     0.000000000      0    0    0 #  c2/C
  5     1   1   -0.106000   -5.261187500     0.960020833     0.000000000      0    0    0 #  c2/C
  6     1   1   -0.106000   -3.893187500     0.253020833     0.000000000      0    0    0 #  c2/C
  7     1   1   -0.106000   -2.526187500     0.963020833     0.000000000      0    0    0 #  c2/C
  8     1   2   -0.253600   -1.158187500     0.257020833     0.000000000      0    0    0 #  c=/C
  9     1   3    0.126800   -10.782187500    2.022020833     0.000000000      0    0    0 #  hc/H
  10    1   3    0.126800   -11.632187500    0.375020833     0.000000000      0    0    0 #  hc/H
  11    1   3    0.053000   -8.870187500    -0.702979167     0.000000000      0    0    0 #  hc/H
  12    1   3    0.053000   -9.854187500    -0.703979167     0.000000000      0    0    0 #  hc/H
  13    1   3    0.053000   -7.506187500     1.907020833     0.000000000      0    0    0 #  hc/H
  14    1   3    0.053000   -8.490187500     1.906020833     0.000000000      0    0    0 #  hc/H
  15    1   3    0.053000   -6.135187500    -0.698979167     0.000000000      0    0    0 #  hc/H
  16    1   3    0.053000   -7.119187500    -0.700979167     0.000000000      0    0    0 #  hc/H
  17    1   3    0.053000   -5.754187500     1.909020833     0.000000000      0    0    0 #  hc/H
  18    1   3    0.053000   -4.771187500     1.911020833     0.000000000      0    0    0 #  hc/H
  19    1   3    0.053000   -4.384187500    -0.696979167     0.000000000      0    0    0 #  hc/H
  20    1   3    0.053000   -3.400187500    -0.695979167     0.000000000      0    0    0 #  hc/H
  21    1   3    0.053000   -3.019187500     1.913020833     0.000000000      0    0    0 #  hc/H
  22    1   3    0.053000   -2.035187500     1.914020833     0.000000000      0    0    0 #  hc/H
  23    1   3    0.126800   -1.107187500    -0.811979167     0.000000000      0    0    0 #  hc/H
  24    1   3    0.126800   -0.257187500     0.835020833     0.000000000      0    0    0 #  hc/H
  25    2   2   -0.253600    1.157812500    -0.256979167     0.000000000      0    0    0 #  c=/C
  26    2   1   -0.106000    2.525812500    -0.962979167     0.000000000      0    0    0 #  c2/C
  27    2   1   -0.106000    3.892812500    -0.253979167     0.000000000      0    0    0 #  c2/C
  28    2   1   -0.106000    5.261812500    -0.959979167     0.000000000      0    0    0 #  c2/C
  29    2   1   -0.106000    6.627812500    -0.249979167     0.000000000      0    0    0 #  c2/C
  30    2   1   -0.106000    7.996812500    -0.956979167     0.000000000      0    0    0 #  c2/C
  31    2   1   -0.106000    9.363812500    -0.246979167     0.000000000      0    0    0 #  c2/C
  32    2   2   -0.253600   10.731812500    -0.952979167     0.000000000      0    0    0 #  c=/C
  33    2   3    0.126800    1.107812500     0.812020833     0.000000000      0    0    0 #  hc/H
  34    2   3    0.126800    0.257812500    -0.834979167     0.000000000      0    0    0 #  hc/H
  35    2   3    0.053000    3.018812500    -1.912979167     0.000000000      0    0    0 #  hc/H
  36    2   3    0.053000    2.035812500    -1.913979167     0.000000000      0    0    0 #  hc/H
  37    2   3    0.053000    4.383812500     0.697020833     0.000000000      0    0    0 #  hc/H
  38    2   3    0.053000    3.399812500     0.696020833     0.000000000      0    0    0 #  hc/H
  39    2   3    0.053000    5.754812500    -1.908979167     0.000000000      0    0    0 #  hc/H
  40    2   3    0.053000    4.770812500    -1.910979167     0.000000000      0    0    0 #  hc/H
  41    2   3    0.053000    6.134812500     0.699020833     0.000000000      0    0    0 #  hc/H
  42    2   3    0.053000    7.118812500     0.701020833     0.000000000      0    0    0 #  hc/H
  43    2   3    0.053000    7.505812500    -1.906979167     0.000000000      0    0    0 #  hc/H
  44    2   3    0.053000    8.489812500    -1.905979167     0.000000000      0    0    0 #  hc/H
  45    2   3    0.053000    8.870812500     0.703020833     0.000000000      0    0    0 #  hc/H
  46    2   3    0.053000    9.853812500     0.704020833     0.000000000      0    0    0 #  hc/H
  47    2   3    0.126800   10.782812500    -2.021979167     0.000000000      0    0    0 #  hc/H
  48    2   3    0.126800   11.632812500    -0.374979167     0.000000000      0    0    0 #  hc/H

Bonds

  1   2     2     1  
  2   4     1     9  
  3   4     1    10  
  4   1     2     3  
  5   3     2    11  
  6   3     2    12  
  7   1     3     4  
  8   3     3    13  
  9   3     3    14  
 10   1     4     5  
 11   3     4    15  
 12   3     4    16  
 13   1     5     6  
 14   3     5    17  
 15   3     5    18  
 16   1     6     7  
 17   3     6    19  
 18   3     6    20  
 19   2     7     8  
 20   3     7    21  
 21   3     7    22  
 22   4     8    23  
 23   4     8    24  
 24   2    26    25  
 25   4    25    33  
 26   4    25    34  
 27   1    26    27  
 28   3    26    35  
 29   3    26    36  
 30   1    27    28  
 31   3    27    37  
 32   3    27    38  
 33   1    28    29  
 34   3    28    39  
 35   3    28    40  
 36   1    29    30  
 37   3    29    41  
 38   3    29    42  
 39   1    30    31  
 40   3    30    43  
 41   3    30    44  
 42   2    31    32  
 43   3    31    45  
 44   3    31    46  
 45   4    32    47  
 46   4    32    48  

Angles

  1   7     9     1    10  
  2   4     2     1    10  
  3   4     2     1     9  
  4   3     3     2    12  
  5   2     3     2     1  
  6   5     1     2    12  
  7   3     3     2    11  
  8   6    11     2    12  
  9   5     1     2    11  
 10   3     2     3    13  
 11   3     4     3    14  
 12   3     2     3    14  
 13   6    13     3    14  
 14   3     4     3    13  
 15   1     2     3     4  
 16   3     5     4    15  
 17   1     3     4     5  
 18   3     3     4    16  
 19   3     3     4    15  
 20   6    15     4    16  
 21   3     5     4    16  
 22   3     6     5    17  
 23   6    17     5    18  
 24   1     4     5     6  
 25   3     4     5    17  
 26   3     6     5    18  
 27   3     4     5    18  
 28   3     5     6    19  
 29   3     7     6    20  
 30   6    19     6    20  
 31   1     5     6     7  
 32   3     7     6    19  
 33   3     5     6    20  
 34   2     6     7     8  
 35   5     8     7    21  
 36   3     6     7    21  
 37   5     8     7    22  
 38   6    21     7    22  
 39   3     6     7    22  
 40   4     7     8    24  
 41   4     7     8    23  
 42   7    23     8    24  
 43   4    26    25    34  
 44   7    33    25    34  
 45   4    26    25    33  
 46   3    27    26    35  
 47   5    25    26    35  
 48   6    35    26    36  
 49   3    27    26    36  
 50   2    27    26    25  
 51   5    25    26    36  
 52   3    26    27    38  
 53   3    28    27    37  
 54   1    26    27    28  
 55   3    26    27    37  
 56   6    37    27    38  
 57   3    28    27    38  
 58   3    29    28    39  
 59   6    39    28    40  
 60   3    27    28    39  
 61   1    27    28    29  
 62   3    29    28    40  
 63   3    27    28    40  
 64   3    30    29    41  
 65   3    28    29    42  
 66   6    41    29    42  
 67   1    28    29    30  
 68   3    28    29    41  
 69   3    30    29    42  
 70   3    29    30    44  
 71   3    31    30    44  
 72   3    29    30    43  
 73   6    43    30    44  
 74   1    29    30    31  
 75   3    31    30    43  
 76   3    30    31    45  
 77   5    32    31    46  
 78   6    45    31    46  
 79   5    32    31    45  
 80   3    30    31    46  
 81   2    30    31    32  
 82   7    47    32    48  
 83   4    31    32    48  
 84   4    31    32    47  

Dihedrals

  1   7    11     2     1     9  
  2   7    12     2     1    10  
  3   7    12     2     1     9  
  4   7    11     2     1    10  
  5   4    11     2     3    13  
  6   2     4     3     2     1  
  7   3     1     2     3    13  
  8   4    12     2     3    13  
  9   6     3     2     1     9  
 10   4    11     2     3    14  
 11   4    12     2     3    14  
 12   6     3     2     1    10  
 13   3     1     2     3    14  
 14   5     4     3     2    12  
 15   5     2     3     4    15  
 16   4    14     3     4    16  
 17   5     4     3     2    11  
 18   4    13     3     4    16  
 19   1     2     3     4     5  
 20   4    14     3     4    15  
 21   4    13     3     4    15  
 22   5     2     3     4    16  
 23   1     3     4     5     6  
 24   5     5     4     3    13  
 25   4    15     4     5    17  
 26   4    16     4     5    17  
 27   5     3     4     5    17  
 28   5     5     4     3    14  
 29   4    16     4     5    18  
 30   5     3     4     5    18  
 31   4    15     4     5    18  
 32   5     6     5     4    16  
 33   4    18     5     6    19  
 34   4    17     5     6    20  
 35   5     4     5     6    20  
 36   5     6     5     4    15  
 37   4    17     5     6    19  
 38   4    18     5     6    20  
 39   5     4     5     6    19  
 40   1     4     5     6     7  
 41   4    20     6     7    21  
 42   4    19     6     7    22  
 43   5     7     6     5    17  
 44   4    19     6     7    21  
 45   4    20     6     7    22  
 46   5     7     6     5    18  
 47   5     5     6     7    22  
 48   2     5     6     7     8  
 49   5     5     6     7    21  
 50   3     8     7     6    19  
 51   7    21     7     8    24  
 52   6     6     7     8    23  
 53   7    21     7     8    23  
 54   7    22     7     8    24  
 55   3     8     7     6    20  
 56   7    22     7     8    23  
 57   6     6     7     8    24  
 58   7    35    26    25    33  
 59   7    35    26    25    34  
 60   7    36    26    25    33  
 61   7    36    26    25    34  
 62   4    36    26    27    38  
 63   6    27    26    25    34  
 64   4    35    26    27    38  
 65   3    25    26    27    38  
 66   4    36    26    27    37  
 67   6    27    26    25    33  
 68   2    28    27    26    25  
 69   3    25    26    27    37  
 70   4    35    26    27    37  
 71   5    28    27    26    35  
 72   4    38    27    28    39  
 73   5    26    27    28    39  
 74   4    37    27    28    40  
 75   5    28    27    26    36  
 76   1    26    27    28    29  
 77   4    38    27    28    40  
 78   4    37    27    28    39  
 79   5    26    27    28    40  
 80   5    29    28    27    38  
 81   1    27    28    29    30  
 82   4    39    28    29    42  
 83   4    39    28    29    41  
 84   4    40    28    29    41  
 85   5    27    28    29    41  
 86   5    29    28    27    37  
 87   4    40    28    29    42  
 88   5    27    28    29    42  
 89   1    28    29    30    31  
 90   4    42    29    30    44  
 91   5    30    29    28    40  
 92   4    41    29    30    44  
 93   5    28    29    30    44  
 94   4    42    29    30    43  
 95   4    41    29    30    43  
 96   5    28    29    30    43  
 97   5    30    29    28    39  
 98   5    31    30    29    42  
 99   4    43    30    31    45  
 100  5    29    30    31    46  
 101  2    29    30    31    32  
 102  4    44    30    31    46  
 103  5    29    30    31    45  
 104  5    31    30    29    41  
 105  4    43    30    31    46  
 106  4    44    30    31    45  
 107  3    32    31    30    43  
 108  7    46    31    32    47  
 109  6    30    31    32    48  
 110  7    45    31    32    47  
 111  6    30    31    32    47  
 112  3    32    31    30    44  
 113  7    46    31    32    48  
 114  7    45    31    32    48  

Impropers

  1   1     2     1     9    10  
  2   1     7     8    23    24  
  3   1    26    25    33    34  
  4   1    31    32    47    48  
  5   5     1     2    11    12  
  6   3     3     2     1    12  
  7   4     3     2    11    12  
  8   3     3     2     1    11  
  9   4     2     3    13    14  
 10   2     2     3     4    14  
 11   2     2     3     4    13  
 12   4     4     3    13    14  
 13   2     3     4     5    15  
 14   4     3     4    15    16  
 15   4     5     4    15    16  
 16   2     3     4     5    16  
 17   4     4     5    17    18  
 18   2     4     5     6    18  
 19   4     6     5    17    18  
 20   2     4     5     6    17  
 21   2     5     6     7    20  
 22   2     5     6     7    19  
 23   4     7     6    19    20  
 24   4     5     6    19    20  
 25   3     6     7     8    22  
 26   4     6     7    21    22  
 27   3     6     7     8    21  
 28   5     8     7    21    22  
 29   3    27    26    25    36  
 30   4    27    26    35    36  
 31   5    25    26    35    36  
 32   3    27    26    25    35  
 33   4    26    27    37    38  
 34   2    26    27    28    38  
 35   2    26    27    28    37  
 36   4    28    27    37    38  
 37   2    27    28    29    40  
 38   2    27    28    29    39  
 39   4    27    28    39    40  
 40   4    29    28    39    40  
 41   2    28    29    30    42  
 42   4    28    29    41    42  
 43   4    30    29    41    42  
 44   2    28    29    30    41  
 45   2    29    30    31    44  
 46   2    29    30    31    43  
 47   4    29    30    43    44  
 48   4    31    30    43    44  
 49   3    30    31    32    46  
 50   5    32    31    45    46  
 51   4    30    31    45    46  
 52   3    30    31    32    45  
