HEADER,  PE_PostReaction.sdf  read w/ mol2lmp > atom_typing v1.11 / 14 April 2025 w/PCFF-IFF atom-types > all2lmp: v1.22 / 14 April 2025  Class: 2; Reduce = [4,4]; BondingIDs = [8,25,8,25]

48 atoms
47 bonds
90 angles
129 dihedrals
58 impropers

3 atom types
4 bond types
7 angle types
7 dihedral types
5 improper types

-8.369129167 8.368970833 xlo xhi
-2.050037500 2.049962500 ylo yhi
-0.500000000 0.500000000 zlo zhi

Masses

1   12.01115000  #  c2   
2   12.01115000  #  c=   
3    1.00797000  #  hc   

Pair Coeffs  # lj/class2/coul/long

1         0.05400000      4.01000000 #  c2   
2         0.06400000      3.90000000 #  c=   
3         0.02000000      2.30000000 #  hc   

Bond Coeffs  # class2

1         1.53000000    299.67000000   -501.77000000    679.81000000 #  c2          c2   
2         1.50600000    312.35170000   -582.18610000    339.89710000 #  c2          c=   
3         1.10100000    345.00000000   -691.89000000    844.60000000 #  c2          hc   
4         1.08830000    365.76790000   -725.54040000    781.66210000 #  c=          hc   

Angle Coeffs  # class2

1       112.67000000     39.51600000     -7.44300000     -9.55830000 #  c2         c2         c2   
2       111.76000000     45.70260000    -10.63960000     -9.91210000 #  c2         c2         c=   
3       110.77000000     41.45300000    -10.60400000      5.12900000 #  c2         c2         hc   
4       117.27000000     30.09440000     -8.08260000     -8.67810000 #  c2         c=         hc   
5       110.06000000     41.27840000    -14.29630000      5.22290000 #  c=         c2         hc   
6       107.66000000     39.64100000    -12.92100000     -2.43180000 #  hc         c2         hc   
7       115.49000000     29.63630000    -12.48530000     -6.22180000 #  hc         c=         hc   

Dihedral Coeffs  # class2

1         0.00000000      0.00000000      0.05140000      0.00000000     -0.14300000      0.00000000 #  c2         c2        c2         c2   
2         0.08830000      0.00000000      0.00000000      0.00000000     -0.01980000      0.00000000 #  c2         c2        c2         c=   
3         0.00000000      0.00000000      0.00000000      0.00000000     -0.11660000      0.00000000 #  c=         c2        c2         hc   
4        -0.14320000      0.00000000      0.06170000      0.00000000     -0.10830000      0.00000000 #  hc         c2        c2         hc   
5         0.00000000      0.00000000      0.03160000      0.00000000     -0.16810000      0.00000000 #  c2         c2        c2         hc   
6        -0.24330000      0.00000000      0.00000000      0.00000000     -0.32810000      0.00000000 #  c2         c2        c=         hc   
7        -0.11430000      0.00000000      0.00000000      0.00000000     -0.13490000      0.00000000 #  hc         c2        c=         hc   

Improper Coeffs  # class2

1         2.05680000      0.00000000 #  c2         c=        hc        hc      nb==3   
2         0.00000000      0.00000000 #  c2         c2        c2        hc      nb!=3   
3         0.00000000      0.00000000 #  c2         c2        c=        hc      nb!=3   
4         0.00000000      0.00000000 #  c2         c2        hc        hc      nb!=3   
5         0.00000000      0.00000000 #  c=         c2        hc        hc      nb!=3   

BondBond Coeffs  # class2

1         0.00000000      1.53000000      1.53000000 #  c2         c2         c2   
2         7.78270000      1.53000000      1.50600000 #  c2         c2         c=   
3         3.38720000      1.53000000      1.10100000 #  c2         c2         hc   
4         3.43940000      1.50600000      1.08830000 #  c2         c=         hc   
5         9.99220000      1.50600000      1.10100000 #  c=         c2         hc   
6         5.33160000      1.10100000      1.10100000 #  hc         c2         hc   
7         4.85060000      1.08830000      1.08830000 #  hc         c=         hc   

BondAngle Coeffs  # class2

1         8.01600000      8.01600000      1.53000000      1.53000000 #  c2         c2         c2   
2        15.98180000     18.97790000      1.53000000      1.50600000 #  c2         c2         c=   
3        20.75400000     11.42100000      1.53000000      1.10100000 #  c2         c2         hc   
4        17.64520000     15.34920000      1.50600000      1.08830000 #  c2         c=         hc   
5        20.87670000     14.27410000      1.50600000      1.10100000 #  c=         c2         hc   
6        18.10300000     18.10300000      1.10100000      1.10100000 #  hc         c2         hc   
7        17.97950000     17.97950000      1.08830000      1.08830000 #  hc         c=         hc   

AngleAngleTorsion Coeffs  # class2

1       -22.04500000    112.67000000    112.67000000 #  c2         c2        c2         c2   
2       -27.91270000    112.67000000    111.76000000 #  c2         c2        c2         c=   
3       -18.37170000    111.76000000    110.77000000 #  c=         c2        c2         hc   
4       -12.56400000    110.77000000    110.77000000 #  hc         c2        c2         hc   
5       -16.16400000    112.67000000    110.77000000 #  c2         c2        c2         hc   
6       -16.89930000    111.76000000    117.27000000 #  c2         c2        c=         hc   
7       -10.95120000    110.06000000    117.27000000 #  hc         c2        c=         hc   

EndBondTorsion Coeffs  # class2

1        -0.07320000      0.00000000      0.00000000     -0.07320000      0.00000000      0.00000000      1.53000000      1.53000000 #  c2         c2        c2         c2   
2        -0.60280000      0.00000000      0.76750000      1.03560000      0.00000000      0.05060000      1.53000000      1.50600000 #  c2         c2        c2         c=   
3         0.98560000      0.00000000     -0.08640000      0.19540000      0.00000000     -0.08710000      1.50600000      1.10100000 #  c=         c2        c2         hc   
4         0.21300000      0.31200000      0.07770000      0.21300000      0.31200000      0.07770000      1.10100000      1.10100000 #  hc         c2        c2         hc   
5         0.24860000      0.24220000     -0.09250000      0.08140000      0.05910000      0.22190000      1.53000000      1.10100000 #  c2         c2        c2         hc   
6         0.18520000      0.00000000      0.59060000      1.17300000      0.00000000     -0.05820000      1.53000000      1.08830000 #  c2         c2        c=         hc   
7         0.22120000      0.00000000      0.09150000      0.59340000      0.00000000      0.04240000      1.10100000      1.08830000 #  hc         c2        c=         hc   

MiddleBondTorsion Coeffs  # class2

1       -17.78700000     -7.18770000      0.00000000      1.53000000 #  c2         c2        c2         c2   
2        -2.24080000      0.00000000     -5.48700000      1.53000000 #  c2         c2        c2         c=   
3        -5.01130000      0.00000000      0.58950000      1.53000000 #  c=         c2        c2         hc   
4       -14.26100000     -0.53220000     -0.48640000      1.53000000 #  hc         c2        c2         hc   
5       -14.87900000     -3.65810000     -0.31380000      1.53000000 #  c2         c2        c2         hc   
6         1.28140000      0.00000000     -1.10220000      1.50600000 #  c2         c2        c=         hc   
7         1.87300000      0.00000000     -0.37020000      1.50600000 #  hc         c2        c=         hc   

BondBond13 Coeffs  # class2

1         0.00000000      1.53000000      1.53000000 #  c2         c2        c2         c2   
2         0.00000000      1.53000000      1.50600000 #  c2         c2        c2         c=   
3         0.00000000      1.50600000      1.10100000 #  c=         c2        c2         hc   
4         0.00000000      1.10100000      1.10100000 #  hc         c2        c2         hc   
5         0.00000000      1.53000000      1.10100000 #  c2         c2        c2         hc   
6         0.00000000      1.53000000      1.08830000 #  c2         c2        c=         hc   
7         0.00000000      1.10100000      1.08830000 #  hc         c2        c=         hc   

AngleTorsion Coeffs  # class2

1         0.38860000     -0.31390000      0.13890000      0.38860000     -0.31390000      0.13890000    112.67000000    112.67000000 #  c2         c2        c2         c2   
2         2.40270000      0.00000000      0.00000000      1.15590000      0.00000000     -1.29000000    112.67000000    111.76000000 #  c2         c2        c2         c=   
3         0.60830000      0.00000000      0.00000000     -0.87140000      0.00000000      0.00000000    111.76000000    110.77000000 #  c=         c2        c2         hc   
4        -0.80850000      0.55690000     -0.24660000     -0.80850000      0.55690000     -0.24660000    110.77000000    110.77000000 #  hc         c2        c2         hc   
5        -0.24540000      0.00000000     -0.11360000      0.31130000      0.45160000     -0.19880000    112.67000000    110.77000000 #  c2         c2        c2         hc   
6         0.53110000      0.00000000      0.00000000     -0.91720000      0.00000000      0.00000000    111.76000000    117.27000000 #  c2         c2        c=         hc   
7         1.90610000      0.00000000      0.00000000     -0.06770000      0.00000000      0.00000000    110.06000000    117.27000000 #  hc         c2        c=         hc   

AngleAngle Coeffs  # class2

1         0.00000000      0.00000000      0.00000000    117.27000000    115.49000000    117.27000000 #  c2         c=        hc        hc      nb==3   
2        -1.31990000     -1.31990000      0.11840000    112.67000000    110.77000000    110.77000000 #  c2         c2        c2        hc      nb!=3   
3         0.97470000     -1.46390000      4.19410000    111.76000000    110.77000000    110.06000000 #  c2         c2        c=        hc      nb!=3   
4         0.27380000     -0.48250000      0.27380000    110.77000000    110.77000000    107.66000000 #  c2         c2        hc        hc      nb!=3   
5        -0.11410000     -8.24640000     -0.11410000    110.06000000    110.06000000    107.66000000 #  c=         c2        hc        hc      nb!=3   

Atoms # full

  1     1   2   -0.253600   -7.003129167     0.549962500     0.000000000      0    0    0 #  c=/C
  2     1   1   -0.106000   -6.137129167     0.049962500     0.000000000      0    0    0 #  c2/C
  3     1   1   -0.106000   -5.271029167     0.549962500     0.000000000      0    0    0 #  c2/C
  4     1   1   -0.106000   -4.405029167     0.049962500     0.000000000      0    0    0 #  c2/C
  5     1   1   -0.106000   -3.539029167     0.549962500     0.000000000      0    0    0 #  c2/C
  6     1   1   -0.106000   -2.673029167     0.049962500     0.000000000      0    0    0 #  c2/C
  7     1   1   -0.106000   -1.806929167     0.549962500     0.000000000      0    0    0 #  c2/C
  8     1   1   -0.106000   -0.940929167     0.049962500     0.000000000      0    0    0 #  c2/C
  9     1   3    0.126800   -7.003129167     1.549962500     0.000000000      0    0    0 #  hc/H
  10    1   3    0.126800   -7.869129167     0.049962500     0.000000000      0    0    0 #  hc/H
  11    1   3    0.053000   -5.494329167    -0.716037500     0.000000000      0    0    0 #  hc/H
  12    1   3    0.053000   -6.779929167    -0.716037500     0.000000000      0    0    0 #  hc/H
  13    1   3    0.053000   -4.628029167     1.315862500     0.000000000      0    0    0 #  hc/H
  14    1   3    0.053000   -5.913429167     1.316362500     0.000000000      0    0    0 #  hc/H
  15    1   3    0.053000   -3.762229167    -0.716037500     0.000000000      0    0    0 #  hc/H
  16    1   3    0.053000   -5.047829167    -0.716037500     0.000000000      0    0    0 #  hc/H
  17    1   3    0.053000   -4.181329167     1.316362500     0.000000000      0    0    0 #  hc/H
  18    1   3    0.053000   -2.896029167     1.315862500     0.000000000      0    0    0 #  hc/H
  19    1   3    0.053000   -3.315829167    -0.716037500     0.000000000      0    0    0 #  hc/H
  20    1   3    0.053000   -2.030229167    -0.716037500     0.000000000      0    0    0 #  hc/H
  21    1   3    0.053000   -2.449329167     1.316362500     0.000000000      0    0    0 #  hc/H
  22    1   3    0.053000   -1.163929167     1.315862500     0.000000000      0    0    0 #  hc/H
  23    1   3    0.053000   -0.940929167    -0.950037500     0.000000000      0    0    0 #  hc/H
  24    1   3    0.053000   -0.074929167     0.549962500     0.000000000      0    0    0 #  hc/H
  25    1   1   -0.106000    0.940770833    -0.050037500     0.000000000      0    0    0 #  c2/C
  26    1   1   -0.106000    1.806770833    -0.550037500     0.000000000      0    0    0 #  c2/C
  27    1   1   -0.106000    2.672870833    -0.050037500     0.000000000      0    0    0 #  c2/C
  28    1   1   -0.106000    3.538870833    -0.550037500     0.000000000      0    0    0 #  c2/C
  29    1   1   -0.106000    4.404870833    -0.050037500     0.000000000      0    0    0 #  c2/C
  30    1   1   -0.106000    5.270870833    -0.550037500     0.000000000      0    0    0 #  c2/C
  31    1   1   -0.106000    6.136970833    -0.050037500     0.000000000      0    0    0 #  c2/C
  32    1   2   -0.253600    7.002970833    -0.550037500     0.000000000      0    0    0 #  c=/C
  33    1   3    0.053000    0.940770833     0.949962500     0.000000000      0    0    0 #  hc/H
  34    1   3    0.053000    0.074770833    -0.550037500     0.000000000      0    0    0 #  hc/H
  35    1   3    0.053000    2.449570833    -1.316037500     0.000000000      0    0    0 #  hc/H
  36    1   3    0.053000    1.163970833    -1.316037500     0.000000000      0    0    0 #  hc/H
  37    1   3    0.053000    3.315870833     0.715862500     0.000000000      0    0    0 #  hc/H
  38    1   3    0.053000    2.030470833     0.716362500     0.000000000      0    0    0 #  hc/H
  39    1   3    0.053000    4.181670833    -1.316037500     0.000000000      0    0    0 #  hc/H
  40    1   3    0.053000    2.896070833    -1.316037500     0.000000000      0    0    0 #  hc/H
  41    1   3    0.053000    3.762570833     0.716362500     0.000000000      0    0    0 #  hc/H
  42    1   3    0.053000    5.047870833     0.715862500     0.000000000      0    0    0 #  hc/H
  43    1   3    0.053000    4.628070833    -1.316037500     0.000000000      0    0    0 #  hc/H
  44    1   3    0.053000    5.913670833    -1.316037500     0.000000000      0    0    0 #  hc/H
  45    1   3    0.053000    5.494570833     0.716362500     0.000000000      0    0    0 #  hc/H
  46    1   3    0.053000    6.779970833     0.715862500     0.000000000      0    0    0 #  hc/H
  47    1   3    0.126800    7.002970833    -1.550037500     0.000000000      0    0    0 #  hc/H
  48    1   3    0.126800    7.868970833    -0.050037500     0.000000000      0    0    0 #  hc/H

Bonds

  1   2     2     1  
  2   4     1     9  
  3   4     1    10  
  4   1     2     3  
  5   3     2    11  
  6   3     2    12  
  7   1     3     4  
  8   3     3    13  
  9   3     3    14  
 10   1     4     5  
 11   3     4    15  
 12   3     4    16  
 13   1     5     6  
 14   3     5    17  
 15   3     5    18  
 16   1     6     7  
 17   3     6    19  
 18   3     6    20  
 19   1     7     8  
 20   3     7    21  
 21   3     7    22  
 22   3     8    23  
 23   3     8    24  
 24   1     8    25  
 25   1    25    26  
 26   3    25    33  
 27   3    25    34  
 28   1    26    27  
 29   3    26    35  
 30   3    26    36  
 31   1    27    28  
 32   3    27    37  
 33   3    27    38  
 34   1    28    29  
 35   3    28    39  
 36   3    28    40  
 37   1    29    30  
 38   3    29    41  
 39   3    29    42  
 40   1    30    31  
 41   3    30    43  
 42   3    30    44  
 43   2    31    32  
 44   3    31    45  
 45   3    31    46  
 46   4    32    47  
 47   4    32    48  

Angles

  1   7     9     1    10  
  2   4     2     1    10  
  3   4     2     1     9  
  4   3     3     2    12  
  5   2     3     2     1  
  6   5     1     2    12  
  7   3     3     2    11  
  8   6    11     2    12  
  9   5     1     2    11  
 10   3     2     3    13  
 11   3     4     3    14  
 12   3     2     3    14  
 13   6    13     3    14  
 14   3     4     3    13  
 15   1     2     3     4  
 16   3     5     4    15  
 17   1     3     4     5  
 18   3     3     4    16  
 19   3     3     4    15  
 20   6    15     4    16  
 21   3     5     4    16  
 22   3     6     5    17  
 23   6    17     5    18  
 24   1     4     5     6  
 25   3     4     5    17  
 26   3     6     5    18  
 27   3     4     5    18  
 28   3     5     6    19  
 29   3     7     6    20  
 30   6    19     6    20  
 31   1     5     6     7  
 32   3     7     6    19  
 33   3     5     6    20  
 34   1     6     7     8  
 35   3     8     7    21  
 36   3     6     7    21  
 37   3     8     7    22  
 38   6    21     7    22  
 39   3     6     7    22  
 40   3     7     8    24  
 41   3    25     8    23  
 42   3     7     8    23  
 43   6    23     8    24  
 44   3    25     8    24  
 45   1     7     8    25  
 46   3    26    25    34  
 47   6    33    25    34  
 48   3     8    25    33  
 49   3    26    25    33  
 50   1     8    25    26  
 51   3     8    25    34  
 52   3    27    26    35  
 53   3    25    26    35  
 54   6    35    26    36  
 55   3    27    26    36  
 56   1    25    26    27  
 57   3    25    26    36  
 58   3    26    27    38  
 59   3    28    27    37  
 60   1    26    27    28  
 61   3    26    27    37  
 62   6    37    27    38  
 63   3    28    27    38  
 64   3    29    28    39  
 65   6    39    28    40  
 66   3    27    28    39  
 67   1    27    28    29  
 68   3    29    28    40  
 69   3    27    28    40  
 70   3    30    29    41  
 71   3    28    29    42  
 72   6    41    29    42  
 73   1    28    29    30  
 74   3    28    29    41  
 75   3    30    29    42  
 76   3    29    30    44  
 77   3    31    30    44  
 78   3    29    30    43  
 79   6    43    30    44  
 80   1    29    30    31  
 81   3    31    30    43  
 82   3    30    31    45  
 83   5    32    31    46  
 84   6    45    31    46  
 85   5    32    31    45  
 86   3    30    31    46  
 87   2    30    31    32  
 88   7    47    32    48  
 89   4    31    32    48  
 90   4    31    32    47  

Dihedrals

  1   7    11     2     1     9  
  2   7    12     2     1    10  
  3   7    12     2     1     9  
  4   7    11     2     1    10  
  5   4    11     2     3    13  
  6   2     4     3     2     1  
  7   3     1     2     3    13  
  8   4    12     2     3    13  
  9   6     3     2     1     9  
 10   4    11     2     3    14  
 11   4    12     2     3    14  
 12   6     3     2     1    10  
 13   3     1     2     3    14  
 14   5     4     3     2    12  
 15   5     2     3     4    15  
 16   4    14     3     4    16  
 17   5     4     3     2    11  
 18   4    13     3     4    16  
 19   1     2     3     4     5  
 20   4    14     3     4    15  
 21   4    13     3     4    15  
 22   5     2     3     4    16  
 23   1     3     4     5     6  
 24   5     5     4     3    13  
 25   4    15     4     5    17  
 26   4    16     4     5    17  
 27   5     3     4     5    17  
 28   5     5     4     3    14  
 29   4    16     4     5    18  
 30   5     3     4     5    18  
 31   4    15     4     5    18  
 32   5     6     5     4    16  
 33   4    18     5     6    19  
 34   4    17     5     6    20  
 35   5     4     5     6    20  
 36   5     6     5     4    15  
 37   4    17     5     6    19  
 38   4    18     5     6    20  
 39   5     4     5     6    19  
 40   1     4     5     6     7  
 41   4    20     6     7    21  
 42   4    19     6     7    22  
 43   5     7     6     5    17  
 44   4    19     6     7    21  
 45   4    20     6     7    22  
 46   5     7     6     5    18  
 47   5     5     6     7    22  
 48   1     5     6     7     8  
 49   5     5     6     7    21  
 50   5     8     7     6    19  
 51   4    21     7     8    24  
 52   5    25     8     7    22  
 53   5     6     7     8    23  
 54   4    21     7     8    23  
 55   4    22     7     8    24  
 56   1     6     7     8    25  
 57   5     8     7     6    20  
 58   5    25     8     7    21  
 59   4    22     7     8    23  
 60   5     6     7     8    24  
 61   4    24     8    25    33  
 62   5    26    25     8    24  
 63   4    23     8    25    34  
 64   5     7     8    25    34  
 65   4    24     8    25    34  
 66   4    23     8    25    33  
 67   5     7     8    25    33  
 68   5    26    25     8    23  
 69   1     7     8    25    26  
 70   4    33    25    26    35  
 71   1     8    25    26    27  
 72   5     8    25    26    36  
 73   4    34    25    26    35  
 74   5     8    25    26    35  
 75   4    33    25    26    36  
 76   4    34    25    26    36  
 77   4    36    26    27    38  
 78   5    27    26    25    34  
 79   4    35    26    27    38  
 80   5    25    26    27    38  
 81   4    36    26    27    37  
 82   5    27    26    25    33  
 83   1    25    26    27    28  
 84   5    25    26    27    37  
 85   4    35    26    27    37  
 86   5    28    27    26    35  
 87   4    38    27    28    39  
 88   5    26    27    28    39  
 89   4    37    27    28    40  
 90   5    28    27    26    36  
 91   1    26    27    28    29  
 92   4    38    27    28    40  
 93   4    37    27    28    39  
 94   5    26    27    28    40  
 95   5    29    28    27    38  
 96   1    27    28    29    30  
 97   4    39    28    29    42  
 98   4    39    28    29    41  
 99   4    40    28    29    41  
 100  5    27    28    29    41  
 101  5    29    28    27    37  
 102  4    40    28    29    42  
 103  5    27    28    29    42  
 104  1    28    29    30    31  
 105  4    42    29    30    44  
 106  5    30    29    28    40  
 107  4    41    29    30    44  
 108  5    28    29    30    44  
 109  4    42    29    30    43  
 110  4    41    29    30    43  
 111  5    28    29    30    43  
 112  5    30    29    28    39  
 113  5    31    30    29    42  
 114  4    43    30    31    45  
 115  5    29    30    31    46  
 116  2    29    30    31    32  
 117  4    44    30    31    46  
 118  5    29    30    31    45  
 119  5    31    30    29    41  
 120  4    43    30    31    46  
 121  4    44    30    31    45  
 122  3    32    31    30    43  
 123  7    46    31    32    47  
 124  6    30    31    32    48  
 125  7    45    31    32    47  
 126  6    30    31    32    47  
 127  3    32    31    30    44  
 128  7    46    31    32    48  
 129  7    45    31    32    48  

Impropers

  1   1     2     1     9    10  
  2   1    31    32    47    48  
  3   5     1     2    11    12  
  4   3     3     2     1    12  
  5   4     3     2    11    12  
  6   3     3     2     1    11  
  7   4     2     3    13    14  
  8   2     2     3     4    14  
  9   2     2     3     4    13  
 10   4     4     3    13    14  
 11   2     3     4     5    15  
 12   4     3     4    15    16  
 13   4     5     4    15    16  
 14   2     3     4     5    16  
 15   4     4     5    17    18  
 16   2     4     5     6    18  
 17   4     6     5    17    18  
 18   2     4     5     6    17  
 19   2     5     6     7    20  
 20   2     5     6     7    19  
 21   4     7     6    19    20  
 22   4     5     6    19    20  
 23   2     6     7     8    22  
 24   4     6     7    21    22  
 25   2     6     7     8    21  
 26   4     8     7    21    22  
 27   2     7     8    25    23  
 28   4    25     8    23    24  
 29   4     7     8    23    24  
 30   2     7     8    25    24  
 31   2     8    25    26    33  
 32   4    26    25    33    34  
 33   4     8    25    33    34  
 34   2     8    25    26    34  
 35   2    25    26    27    36  
 36   4    27    26    35    36  
 37   4    25    26    35    36  
 38   2    25    26    27    35  
 39   4    26    27    37    38  
 40   2    26    27    28    38  
 41   2    26    27    28    37  
 42   4    28    27    37    38  
 43   2    27    28    29    40  
 44   2    27    28    29    39  
 45   4    27    28    39    40  
 46   4    29    28    39    40  
 47   2    28    29    30    42  
 48   4    28    29    41    42  
 49   4    30    29    41    42  
 50   2    28    29    30    41  
 51   2    29    30    31    44  
 52   2    29    30    31    43  
 53   4    29    30    43    44  
 54   4    31    30    43    44  
 55   3    30    31    32    46  
 56   5    32    31    45    46  
 57   4    30    31    45    46  
 58   3    30    31    32    45  
