HEADER,  PE_Unit.sdf  read w/ mol2lmp > atom_typing v1.11 / 14 April 2025 w/PCFF-IFF atom-types > all2lmp: v1.22 / 14 April 2025  Class: 2

24 atoms
23 bonds
42 angles
57 dihedrals
26 impropers

3 atom types
4 bond types
7 angle types
7 dihedral types
5 improper types

-4.397179167 4.397020833 xlo xhi
-1.750037500 1.749962500 ylo yhi
-0.500000000 0.500000000 zlo zhi

Masses

1   12.01115000  #  c2   
2   12.01115000  #  c=   
3    1.00797000  #  hc   

Pair Coeffs  # lj/class2/coul/long

1         0.05400000      4.01000000 #  c2   
2         0.06400000      3.90000000 #  c=   
3         0.02000000      2.30000000 #  hc   

Bond Coeffs  # class2

1         1.53000000    299.67000000   -501.77000000    679.81000000 #  c2          c2   
2         1.50600000    312.35170000   -582.18610000    339.89710000 #  c2          c=   
3         1.10100000    345.00000000   -691.89000000    844.60000000 #  c2          hc   
4         1.08830000    365.76790000   -725.54040000    781.66210000 #  c=          hc   

Angle Coeffs  # class2

1       112.67000000     39.51600000     -7.44300000     -9.55830000 #  c2         c2         c2   
2       111.76000000     45.70260000    -10.63960000     -9.91210000 #  c2         c2         c=   
3       110.77000000     41.45300000    -10.60400000      5.12900000 #  c2         c2         hc   
4       117.27000000     30.09440000     -8.08260000     -8.67810000 #  c2         c=         hc   
5       110.06000000     41.27840000    -14.29630000      5.22290000 #  c=         c2         hc   
6       107.66000000     39.64100000    -12.92100000     -2.43180000 #  hc         c2         hc   
7       115.49000000     29.63630000    -12.48530000     -6.22180000 #  hc         c=         hc   

Dihedral Coeffs  # class2

1         0.00000000      0.00000000      0.05140000      0.00000000     -0.14300000      0.00000000 #  c2         c2        c2         c2   
2         0.08830000      0.00000000      0.00000000      0.00000000     -0.01980000      0.00000000 #  c2         c2        c2         c=   
3         0.00000000      0.00000000      0.00000000      0.00000000     -0.11660000      0.00000000 #  c=         c2        c2         hc   
4        -0.14320000      0.00000000      0.06170000      0.00000000     -0.10830000      0.00000000 #  hc         c2        c2         hc   
5         0.00000000      0.00000000      0.03160000      0.00000000     -0.16810000      0.00000000 #  c2         c2        c2         hc   
6        -0.24330000      0.00000000      0.00000000      0.00000000     -0.32810000      0.00000000 #  c2         c2        c=         hc   
7        -0.11430000      0.00000000      0.00000000      0.00000000     -0.13490000      0.00000000 #  hc         c2        c=         hc   

Improper Coeffs  # class2

1         2.05680000      0.00000000 #  c2         c=        hc        hc      nb==3   
2         0.00000000      0.00000000 #  c2         c2        c2        hc      nb!=3   
3         0.00000000      0.00000000 #  c2         c2        c=        hc      nb!=3   
4         0.00000000      0.00000000 #  c2         c2        hc        hc      nb!=3   
5         0.00000000      0.00000000 #  c=         c2        hc        hc      nb!=3   

BondBond Coeffs  # class2

1         0.00000000      1.53000000      1.53000000 #  c2         c2         c2   
2         7.78270000      1.53000000      1.50600000 #  c2         c2         c=   
3         3.38720000      1.53000000      1.10100000 #  c2         c2         hc   
4         3.43940000      1.50600000      1.08830000 #  c2         c=         hc   
5         9.99220000      1.50600000      1.10100000 #  c=         c2         hc   
6         5.33160000      1.10100000      1.10100000 #  hc         c2         hc   
7         4.85060000      1.08830000      1.08830000 #  hc         c=         hc   

BondAngle Coeffs  # class2

1         8.01600000      8.01600000      1.53000000      1.53000000 #  c2         c2         c2   
2        15.98180000     18.97790000      1.53000000      1.50600000 #  c2         c2         c=   
3        20.75400000     11.42100000      1.53000000      1.10100000 #  c2         c2         hc   
4        17.64520000     15.34920000      1.50600000      1.08830000 #  c2         c=         hc   
5        20.87670000     14.27410000      1.50600000      1.10100000 #  c=         c2         hc   
6        18.10300000     18.10300000      1.10100000      1.10100000 #  hc         c2         hc   
7        17.97950000     17.97950000      1.08830000      1.08830000 #  hc         c=         hc   

AngleAngleTorsion Coeffs  # class2

1       -22.04500000    112.67000000    112.67000000 #  c2         c2        c2         c2   
2       -27.91270000    112.67000000    111.76000000 #  c2         c2        c2         c=   
3       -18.37170000    111.76000000    110.77000000 #  c=         c2        c2         hc   
4       -12.56400000    110.77000000    110.77000000 #  hc         c2        c2         hc   
5       -16.16400000    112.67000000    110.77000000 #  c2         c2        c2         hc   
6       -16.89930000    111.76000000    117.27000000 #  c2         c2        c=         hc   
7       -10.95120000    110.06000000    117.27000000 #  hc         c2        c=         hc   

EndBondTorsion Coeffs  # class2

1        -0.07320000      0.00000000      0.00000000     -0.07320000      0.00000000      0.00000000      1.53000000      1.53000000 #  c2         c2        c2         c2   
2        -0.60280000      0.00000000      0.76750000      1.03560000      0.00000000      0.05060000      1.53000000      1.50600000 #  c2         c2        c2         c=   
3         0.98560000      0.00000000     -0.08640000      0.19540000      0.00000000     -0.08710000      1.50600000      1.10100000 #  c=         c2        c2         hc   
4         0.21300000      0.31200000      0.07770000      0.21300000      0.31200000      0.07770000      1.10100000      1.10100000 #  hc         c2        c2         hc   
5         0.24860000      0.24220000     -0.09250000      0.08140000      0.05910000      0.22190000      1.53000000      1.10100000 #  c2         c2        c2         hc   
6         0.18520000      0.00000000      0.59060000      1.17300000      0.00000000     -0.05820000      1.53000000      1.08830000 #  c2         c2        c=         hc   
7         0.22120000      0.00000000      0.09150000      0.59340000      0.00000000      0.04240000      1.10100000      1.08830000 #  hc         c2        c=         hc   

MiddleBondTorsion Coeffs  # class2

1       -17.78700000     -7.18770000      0.00000000      1.53000000 #  c2         c2        c2         c2   
2        -2.24080000      0.00000000     -5.48700000      1.53000000 #  c2         c2        c2         c=   
3        -5.01130000      0.00000000      0.58950000      1.53000000 #  c=         c2        c2         hc   
4       -14.26100000     -0.53220000     -0.48640000      1.53000000 #  hc         c2        c2         hc   
5       -14.87900000     -3.65810000     -0.31380000      1.53000000 #  c2         c2        c2         hc   
6         1.28140000      0.00000000     -1.10220000      1.50600000 #  c2         c2        c=         hc   
7         1.87300000      0.00000000     -0.37020000      1.50600000 #  hc         c2        c=         hc   

BondBond13 Coeffs  # class2

1         0.00000000      1.53000000      1.53000000 #  c2         c2        c2         c2   
2         0.00000000      1.53000000      1.50600000 #  c2         c2        c2         c=   
3         0.00000000      1.50600000      1.10100000 #  c=         c2        c2         hc   
4         0.00000000      1.10100000      1.10100000 #  hc         c2        c2         hc   
5         0.00000000      1.53000000      1.10100000 #  c2         c2        c2         hc   
6         0.00000000      1.53000000      1.08830000 #  c2         c2        c=         hc   
7         0.00000000      1.10100000      1.08830000 #  hc         c2        c=         hc   

AngleTorsion Coeffs  # class2

1         0.38860000     -0.31390000      0.13890000      0.38860000     -0.31390000      0.13890000    112.67000000    112.67000000 #  c2         c2        c2         c2   
2         2.40270000      0.00000000      0.00000000      1.15590000      0.00000000     -1.29000000    112.67000000    111.76000000 #  c2         c2        c2         c=   
3         0.60830000      0.00000000      0.00000000     -0.87140000      0.00000000      0.00000000    111.76000000    110.77000000 #  c=         c2        c2         hc   
4        -0.80850000      0.55690000     -0.24660000     -0.80850000      0.55690000     -0.24660000    110.77000000    110.77000000 #  hc         c2        c2         hc   
5        -0.24540000      0.00000000     -0.11360000      0.31130000      0.45160000     -0.19880000    112.67000000    110.77000000 #  c2         c2        c2         hc   
6         0.53110000      0.00000000      0.00000000     -0.91720000      0.00000000      0.00000000    111.76000000    117.27000000 #  c2         c2        c=         hc   
7         1.90610000      0.00000000      0.00000000     -0.06770000      0.00000000      0.00000000    110.06000000    117.27000000 #  hc         c2        c=         hc   

AngleAngle Coeffs  # class2

1         0.00000000      0.00000000      0.00000000    117.27000000    115.49000000    117.27000000 #  c2         c=        hc        hc      nb==3   
2        -1.31990000     -1.31990000      0.11840000    112.67000000    110.77000000    110.77000000 #  c2         c2        c2        hc      nb!=3   
3         0.97470000     -1.46390000      4.19410000    111.76000000    110.77000000    110.06000000 #  c2         c2        c=        hc      nb!=3   
4         0.27380000     -0.48250000      0.27380000    110.77000000    110.77000000    107.66000000 #  c2         c2        hc        hc      nb!=3   
5        -0.11410000     -8.24640000     -0.11410000    110.06000000    110.06000000    107.66000000 #  c=         c2        hc        hc      nb!=3   

Atoms # full

  1     1   2   -0.253600   -3.031179167     0.249962500     0.000000000      0    0    0 #  c=/C
  2     1   1   -0.106000   -2.165179167    -0.250037500     0.000000000      0    0    0 #  c2/C
  3     1   1   -0.106000   -1.299079167     0.249962500     0.000000000      0    0    0 #  c2/C
  4     1   1   -0.106000   -0.433079167    -0.250037500     0.000000000      0    0    0 #  c2/C
  5     1   1   -0.106000    0.432920833     0.249962500     0.000000000      0    0    0 #  c2/C
  6     1   1   -0.106000    1.298920833    -0.250037500     0.000000000      0    0    0 #  c2/C
  7     1   1   -0.106000    2.165020833     0.249962500     0.000000000      0    0    0 #  c2/C
  8     1   2   -0.253600    3.031020833    -0.250037500     0.000000000      0    0    0 #  c=/C
  9     1   3    0.126800   -3.031179167     1.249962500     0.000000000      0    0    0 #  hc/H
  10    1   3    0.126800   -3.897179167    -0.250037500     0.000000000      0    0    0 #  hc/H
  11    1   3    0.053000   -1.522379167    -1.016037500     0.000000000      0    0    0 #  hc/H
  12    1   3    0.053000   -2.807979167    -1.016037500     0.000000000      0    0    0 #  hc/H
  13    1   3    0.053000   -0.656079167     1.015862500     0.000000000      0    0    0 #  hc/H
  14    1   3    0.053000   -1.941479167     1.016362500     0.000000000      0    0    0 #  hc/H
  15    1   3    0.053000    0.209720833    -1.016037500     0.000000000      0    0    0 #  hc/H
  16    1   3    0.053000   -1.075879167    -1.016037500     0.000000000      0    0    0 #  hc/H
  17    1   3    0.053000   -0.209379167     1.016362500     0.000000000      0    0    0 #  hc/H
  18    1   3    0.053000    1.075920833     1.015862500     0.000000000      0    0    0 #  hc/H
  19    1   3    0.053000    0.656120833    -1.016037500     0.000000000      0    0    0 #  hc/H
  20    1   3    0.053000    1.941720833    -1.016037500     0.000000000      0    0    0 #  hc/H
  21    1   3    0.053000    1.522620833     1.016362500     0.000000000      0    0    0 #  hc/H
  22    1   3    0.053000    2.808020833     1.015862500     0.000000000      0    0    0 #  hc/H
  23    1   3    0.126800    3.031020833    -1.250037500     0.000000000      0    0    0 #  hc/H
  24    1   3    0.126800    3.897020833     0.249962500     0.000000000      0    0    0 #  hc/H

Bonds

  1   2     2     1  
  2   4     1     9  
  3   4     1    10  
  4   1     2     3  
  5   3     2    11  
  6   3     2    12  
  7   1     3     4  
  8   3     3    13  
  9   3     3    14  
 10   1     4     5  
 11   3     4    15  
 12   3     4    16  
 13   1     5     6  
 14   3     5    17  
 15   3     5    18  
 16   1     6     7  
 17   3     6    19  
 18   3     6    20  
 19   2     7     8  
 20   3     7    21  
 21   3     7    22  
 22   4     8    23  
 23   4     8    24  

Angles

  1   7     9     1    10  
  2   4     2     1     9  
  3   4     2     1    10  
  4   6    11     2    12  
  5   5     1     2    11  
  6   3     3     2    12  
  7   2     3     2     1  
  8   3     3     2    11  
  9   5     1     2    12  
 10   3     2     3    13  
 11   6    13     3    14  
 12   3     4     3    14  
 13   3     4     3    13  
 14   3     2     3    14  
 15   1     2     3     4  
 16   3     3     4    16  
 17   6    15     4    16  
 18   3     5     4    16  
 19   3     3     4    15  
 20   3     5     4    15  
 21   1     3     4     5  
 22   1     4     5     6  
 23   3     4     5    18  
 24   3     6     5    17  
 25   3     4     5    17  
 26   6    17     5    18  
 27   3     6     5    18  
 28   3     5     6    20  
 29   3     7     6    19  
 30   1     5     6     7  
 31   3     5     6    19  
 32   3     7     6    20  
 33   6    19     6    20  
 34   3     6     7    21  
 35   2     6     7     8  
 36   5     8     7    22  
 37   6    21     7    22  
 38   5     8     7    21  
 39   3     6     7    22  
 40   7    23     8    24  
 41   4     7     8    24  
 42   4     7     8    23  

Dihedrals

  1   7    12     2     1    10  
  2   7    11     2     1     9  
  3   7    11     2     1    10  
  4   7    12     2     1     9  
  5   4    12     2     3    13  
  6   6     3     2     1     9  
  7   2     4     3     2     1  
  8   3     1     2     3    13  
  9   4    11     2     3    14  
 10   4    12     2     3    14  
 11   6     3     2     1    10  
 12   4    11     2     3    13  
 13   3     1     2     3    14  
 14   4    13     3     4    16  
 15   4    14     3     4    15  
 16   5     2     3     4    15  
 17   4    13     3     4    15  
 18   1     2     3     4     5  
 19   5     4     3     2    12  
 20   4    14     3     4    16  
 21   5     2     3     4    16  
 22   5     4     3     2    11  
 23   5     5     4     3    13  
 24   4    16     4     5    18  
 25   4    15     4     5    17  
 26   1     3     4     5     6  
 27   5     3     4     5    18  
 28   4    16     4     5    17  
 29   5     3     4     5    17  
 30   5     5     4     3    14  
 31   4    15     4     5    18  
 32   5     4     5     6    19  
 33   5     6     5     4    16  
 34   4    18     5     6    19  
 35   5     6     5     4    15  
 36   4    17     5     6    20  
 37   5     4     5     6    20  
 38   4    17     5     6    19  
 39   4    18     5     6    20  
 40   1     4     5     6     7  
 41   2     5     6     7     8  
 42   4    20     6     7    22  
 43   5     7     6     5    18  
 44   5     5     6     7    22  
 45   4    20     6     7    21  
 46   4    19     6     7    22  
 47   5     7     6     5    17  
 48   5     5     6     7    21  
 49   4    19     6     7    21  
 50   3     8     7     6    20  
 51   7    22     7     8    23  
 52   6     6     7     8    24  
 53   3     8     7     6    19  
 54   7    21     7     8    24  
 55   6     6     7     8    23  
 56   7    21     7     8    23  
 57   7    22     7     8    24  

Impropers

  1   1     2     1     9    10  
  2   1     7     8    23    24  
  3   5     1     2    11    12  
  4   3     3     2     1    12  
  5   4     3     2    11    12  
  6   3     3     2     1    11  
  7   4     2     3    13    14  
  8   2     2     3     4    14  
  9   2     2     3     4    13  
 10   4     4     3    13    14  
 11   2     3     4     5    15  
 12   4     3     4    15    16  
 13   4     5     4    15    16  
 14   2     3     4     5    16  
 15   2     4     5     6    18  
 16   4     4     5    17    18  
 17   4     6     5    17    18  
 18   2     4     5     6    17  
 19   2     5     6     7    20  
 20   2     5     6     7    19  
 21   4     7     6    19    20  
 22   4     5     6    19    20  
 23   3     6     7     8    22  
 24   4     6     7    21    22  
 25   3     6     7     8    21  
 26   5     8     7    21    22  
